chemcompute.org
{'UTCtimestamp': '2022-10-04T21:16:48.877439', 'cluster': 'jetstream2', 'clusterJobNumber': '120804', 'status': 'RUNNING', 'nodeList': 'chemcompute-node-0'}
----- GAMESS execution script 'rungms' -----
This job is running on host chemcompute-node-0.novalocal
under operating system Linux at Tue Oct 4 21:16:52 UTC 2022
SLURM has assigned the following compute nodes to this run:
Available scratch disk space (Kbyte units) at beginning of the job is
Filesystem     1K-blocks     Used Available Use% Mounted on
/dev/sda1       62903276 11974020  50929256  20% /
GAMESS temporary binary files will be written to /scratch/120804
GAMESS supplementary output files will be written to /data/slurm/46/460761
Copying input file 460761.inp to your run's scratch directory...
The generated host list is
chemcompute-node-0.novalocal

 Distributed Data Interface kickoff program.
 Initiating 1 compute processes on 1 nodes to run the following command:
 /data/gamess-2019R1-avx2-ddi/gamess.00.x 460761 

          ******************************************************
          *         GAMESS VERSION = 30 JUN 2019 (R1)          *
          *             FROM IOWA STATE UNIVERSITY             *
          * M.W.SCHMIDT, K.K.BALDRIDGE, J.A.BOATZ, S.T.ELBERT, *
          *   M.S.GORDON, J.H.JENSEN, S.KOSEKI, N.MATSUNAGA,   *
          *          K.A.NGUYEN, S.J.SU, T.L.WINDUS,           *
          *       TOGETHER WITH M.DUPUIS, J.A.MONTGOMERY       *
          *         J.COMPUT.CHEM.  14, 1347-1363(1993)        *
          **************** 64 BIT INTEL VERSION ****************

  SINCE 1993, STUDENTS AND POSTDOCS WORKING AT IOWA STATE UNIVERSITY
  AND ALSO IN THEIR VARIOUS JOBS AFTER LEAVING ISU HAVE MADE IMPORTANT
  CONTRIBUTIONS TO THE CODE:
     IVANA ADAMOVIC, CHRISTINE AIKENS, YURI ALEXEEV, POOJA ARORA,
     ANDREY ASADCHEV, ROB BELL, PRADIPTA BANDYOPADHYAY, JONATHAN BENTZ,
     COLLEEN BERTONI, BRETT BODE, KURT BRORSEN, CALEB CARLIN, GALINA CHABAN,
     WEI CHEN, CHEOL HO CHOI, PAUL DAY, ALBERT DEFUSCO, NUWAN DESILVA,
     TIM DUDLEY, DMITRI FEDOROV, ALEX FINDLATER, GRAHAM FLETCHER, 
     MARK FREITAG, KURT GLAESEMANN, ANASTASIA GUNINA,
     DAN KEMP, GRANT MERRILL, NORIYUKI MINEZAWA, JONATHAN MULLIN,
     TAKESHI NAGATA, SEAN NEDD, HEATHER NETZLOFF, BOSILJKA NJEGIC, RYAN OLSON,
     MIKE PAK, BUU PHAM,
     SPENCER PRUITT, LUKE ROSKOP, JIM SHOEMAKER, LYUDMILA SLIPCHENKO,
     TONY SMITH, SAROM SOK LEANG, JIE SONG, TETSUYA TAKETSUGU, SIMON WEBB,
     PENG XU, SOOHAENG YOO, FEDERICO ZAHARIEV

  ADDITIONAL CODE HAS BEEN PROVIDED BY COLLABORATORS IN OTHER GROUPS:
     IOWA STATE UNIVERSITY:
          JOE IVANIC, AARON WEST, LAIMUTIS BYTAUTAS, KLAUS RUEDENBERG
     UNIVERSITY OF TOKYO: KIMIHIKO HIRAO, TAKAHITO NAKAJIMA,
          TAKAO TSUNEDA, MUNEAKI KAMIYA, SUSUMU YANAGISAWA,
          KIYOSHI YAGI, MAHITO CHIBA, SEIKEN TOKURA, NAOAKI KAWAKAMI
     UNIVERSITY OF AARHUS: FRANK JENSEN
     UNIVERSITY OF IOWA: VISVALDAS KAIRYS, HUI LI
     NATIONAL INST. OF STANDARDS AND TECHNOLOGY: WALT STEVENS, DAVID GARMER
     UNIVERSITY OF PISA: BENEDETTA MENNUCCI, JACOPO TOMASI
     UNIVERSITY OF MEMPHIS: HENRY KURTZ, PRAKASHAN KORAMBATH
     UNIVERSITY OF ALBERTA: TOBY ZENG, MARIUSZ KLOBUKOWSKI
     UNIVERSITY OF NEW ENGLAND: MARK SPACKMAN
     MIE UNIVERSITY: HIROAKI UMEDA
     NAT. INST. OF ADVANCED INDUSTRIAL SCIENCE AND TECHNOLOGY: KAZUO KITAURA
     MICHIGAN STATE UNIVERSITY:
          KAROL KOWALSKI, MARTA WLOCH, JEFFREY GOUR, JESSE LUTZ,
          WEI LI, JUN SHEN, J. EMILIANO DEUSTUA, PIOTR PIECUCH
     UNIVERSITY OF MINNESOTA:
          YINAN SHU
     UNIVERSITY OF SILESIA: MONIKA MUSIAL, STANISLAW KUCHARSKI
     FACULTES UNIVERSITAIRES NOTRE-DAME DE LA PAIX:
          OLIVIER QUINET, BENOIT CHAMPAGNE
     UNIVERSITY OF CALIFORNIA - SANTA BARBARA: BERNARD KIRTMAN
     INSTITUTE FOR MOLECULAR SCIENCE:
          KAZUYA ISHIMURA, MICHIO KATOUDA, AND SHIGERU NAGASE
     UNIVERSITY OF NOTRE DAME: ANNA POMOGAEVA, DAN CHIPMAN
     KYUSHU UNIVERSITY:
          HARUYUKI NAKANO,
          FENG LONG GU, JACEK KORCHOWIEC, MARCIN MAKOWSKI, AND YURIKO AOKI,
          HIROTOSHI MORI AND EISAKU MIYOSHI
     PENNSYLVANIA STATE UNIVERSITY:
          TZVETELIN IORDANOV, CHET SWALINA, JONATHAN SKONE,
          SHARON HAMMES-SCHIFFER
     WASEDA UNIVERSITY:
          MASATO KOBAYASHI, TOMOKO AKAMA, TSUGUKI TOUMA,
          TAKESHI YOSHIKAWA, YASUHIRO IKABATA, JUNJI SEINO,
          YUYA NAKAJIMA, HIROMI NAKAI
     NANJING UNIVERSITY: SHUHUA LI
     UNIVERSITY OF NEBRASKA:
          PEIFENG SU, DEJUN SI, NANDUN THELLAMUREGE, YALI WANG, HUI LI
     UNIVERSITY OF ZURICH: ROBERTO PEVERATI, KIM BALDRIDGE
     N. COPERNICUS UNIVERSITY AND JACKSON STATE UNIVERSITY:
          MARIA BARYSZ
     UNIVERSITY OF COPENHAGEN: Jimmy Kromann, CASPER STEINMANN
     TOKYO INSTITUTE OF TECHNOLOGY: HIROYA NAKATA
     NAGOYA UNIVERSITY: YOSHIO NISHIMOTO, STEPHAN IRLE
     MOSCOW STATE UNIVERSITY: VLADIMIR MIRONOV
     A.N.NESMEYANOV INSTITUTE OF ORGANOELEMENT COMPOUNDS OF RUSSIAN ACADEMY OF SCIENCES:
          IGOR S. GERASIMOV

 EXECUTION OF GAMESS BEGUN Tue Oct  4 21:16:52 2022

            ECHO OF THE FIRST FEW INPUT CARDS -
 INPUT CARD>!                                                                               
 INPUT CARD>!   GAMESS Calculation input file                                               
 INPUT CARD>!   MOLECULA DE PRUEBA YDMK                                                     
 INPUT CARD>!                                                                               
 INPUT CARD> $CONTRL SCFTYP=RHF MAXIT=200 RUNTYP=OPTIMIZE                                   
 INPUT CARD>         COORD=UNIQUE MULT=1                                                    
 INPUT CARD>         ICHARG=0                                                               
 INPUT CARD>         DFTTYP=B3LYP                                                           
 INPUT CARD>         MOLPLT=.FALSE. PLTORB=.FALSE.  $END                                    
 INPUT CARD> $SYSTEM TIMLIM=2879 MWORDS=250  $END                                           
 INPUT CARD>                                                                                
 INPUT CARD> $FORCE METHOD=SEMINUM NVIB=2 $END                                              
 INPUT CARD> $STATPT OPTTOL=0.0005 NSTEP=999 $END                                           
 INPUT CARD> $STATPT IHREP=0 HSSEND=.TRUE.  $END                                            
 INPUT CARD>                                                                                
 INPUT CARD> $DFT    METHOD=GRID  NLEB=590  $END                                            
 INPUT CARD>                                                                                
 INPUT CARD> $BASIS  GBASIS=N31 NGAUSS=6                                                    
 INPUT CARD>         NDFUNC=1   NPFUNC=0  $END                                              
 INPUT CARD>                                                                                
 INPUT CARD> $SCF    DIRSCF=.T. $END                                                        
 INPUT CARD> $GUESS  GUESS=HUCKEL  $END                                                     
 INPUT CARD>                                                                                
 INPUT CARD> $DATA                                                                          
 INPUT CARD>   MOLECULA DE PRUEBA YDMK                                                      
 INPUT CARD>  C1                                                                            
 INPUT CARD>O     8.0    -1.08486     1.31190     0.17837                                   
 INPUT CARD>C     6.0    -0.04180     0.71319    -0.05335                                   
 INPUT CARD>C     6.0     0.01655    -0.76562    -0.06160                                   
 INPUT CARD>C     6.0     1.19128    -1.40819    -0.08375                                   
 INPUT CARD>H     1.0     0.90358     1.23886    -0.25910                                   
 INPUT CARD>H     1.0    -0.93654    -1.28680    -0.03633                                   
 INPUT CARD>H     1.0     2.14591    -0.88707    -0.08842                                   
 INPUT CARD>H     1.0     1.22077    -2.49430    -0.08108                                   
 INPUT CARD> $END                                                                           
 INPUT CARD>                                                                                
 INPUT CARD>                                                                                
 INPUT CARD>! Customizations after this line are persisted when using Do More Calculations  
  250000000 WORDS OF MEMORY AVAILABLE

     BASIS OPTIONS
     -------------
     GBASIS=N31          IGAUSS=       6      POLAR=POPN31  
     NDFUNC=       1     NFFUNC=       0     DIFFSP=       F
     NPFUNC=       0      DIFFS=       F     BASNAM=        


     RUN TITLE
     ---------
    MOLECULA DE PRUEBA YDMK                                                      

 THE POINT GROUP OF THE MOLECULE IS C1      
 THE ORDER OF THE PRINCIPAL AXIS IS     0

 ATOM      ATOMIC                      COORDINATES (BOHR)
           CHARGE         X                   Y                   Z
 O           8.0    -2.0500881350        2.4791315233        0.3370704244
 C           6.0    -0.0789905463        1.3477336772       -0.1008168814
 C           6.0     0.0312749651       -1.4468120107       -0.1164071208
 C           6.0     2.2511927747       -2.6610932387       -0.1582645515
 H           1.0     1.7075186080        2.3411059371       -0.4896280034
 H           1.0    -1.7698039765       -2.4316994010       -0.0686537451
 H           1.0     4.0551818943       -1.6763192319       -0.1670895718
 H           1.0     2.3069207940       -4.7135435312       -0.1532189831

          INTERNUCLEAR DISTANCES (ANGS.)
          ------------------------------

                1 O          2 C          3 C          4 C          5 H     

   1 O       0.0000000    1.2247947 *  2.3636368 *  3.5564603    2.0373042 *
   2 C       1.2247947 *  0.0000000    1.4799837 *  2.4539078 *  1.1010928 *
   3 C       2.3636368 *  1.4799837 *  0.0000000    1.3391704 *  2.2008563 *
   4 C       3.5564603    2.4539078 *  1.3391704 *  0.0000000    2.6684064 *
   5 H       2.0373042 *  1.1010928 *  2.2008563 *  2.6684064 *  0.0000000  
   6 H       2.6117689 *  2.1910749 *  1.0865761 *  2.1318072 *  3.1328304  
   7 H       3.9172083    2.7107447 *  2.1329893 *  1.0876150 *  2.4682167 *
   8 H       4.4576230    3.4471501    2.1068602 *  1.0865136 *  3.7508378  

                6 H          7 H          8 H     

   1 O       2.6117689 *  3.9172083    4.4576230  
   2 C       2.1910749 *  2.7107447 *  3.4471501  
   3 C       1.0865761 *  2.1329893 *  2.1068602 *
   4 C       2.1318072 *  1.0876150 *  1.0865136 *
   5 H       3.1328304    2.4682167 *  3.7508378  
   6 H       0.0000000    3.1086967    2.4726595 *
   7 H       3.1086967    0.0000000    1.8544881 *
   8 H       2.4726595 *  1.8544881 *  0.0000000  

  * ... LESS THAN  3.000


     ATOMIC BASIS SET
     ----------------
 THE CONTRACTED PRIMITIVE FUNCTIONS HAVE BEEN UNNORMALIZED
 THE CONTRACTED BASIS FUNCTIONS ARE NOW NORMALIZED TO UNITY

  SHELL TYPE  PRIMITIVE        EXPONENT          CONTRACTION COEFFICIENT(S)

 O         

      1   S       1          5484.6716600    0.001831074430
      1   S       2           825.2349460    0.013950172200
      1   S       3           188.0469580    0.068445078098
      1   S       4            52.9645000    0.232714335992
      1   S       5            16.8975704    0.470192897984
      1   S       6             5.7996353    0.358520852987

      2   L       7            15.5396162   -0.110777549525    0.070874268231
      2   L       8             3.5999336   -0.148026262701    0.339752839147
      2   L       9             1.0137618    1.130767015354    0.727158577316

      3   L      10             0.2700058    1.000000000000    1.000000000000

      4   D      11             0.8000000    1.000000000000

 C         

      5   S      12          3047.5248800    0.001834737132
      5   S      13           457.3695180    0.014037322813
      5   S      14           103.9486850    0.068842622264
      5   S      15            29.2101553    0.232184443216
      5   S      16             9.2866630    0.467941348435
      5   S      17             3.1639270    0.362311985337

      6   L      18             7.8682723   -0.119332419775    0.068999066591
      6   L      19             1.8812885   -0.160854151696    0.316423960957
      6   L      20             0.5442493    1.143456437840    0.744308290898

      7   L      21             0.1687145    1.000000000000    1.000000000000

      8   D      22             0.8000000    1.000000000000

 C         

      9   S      23          3047.5248800    0.001834737132
      9   S      24           457.3695180    0.014037322813
      9   S      25           103.9486850    0.068842622264
      9   S      26            29.2101553    0.232184443216
      9   S      27             9.2866630    0.467941348435
      9   S      28             3.1639270    0.362311985337

     10   L      29             7.8682723   -0.119332419775    0.068999066591
     10   L      30             1.8812885   -0.160854151696    0.316423960957
     10   L      31             0.5442493    1.143456437840    0.744308290898

     11   L      32             0.1687145    1.000000000000    1.000000000000

     12   D      33             0.8000000    1.000000000000

 C         

     13   S      34          3047.5248800    0.001834737132
     13   S      35           457.3695180    0.014037322813
     13   S      36           103.9486850    0.068842622264
     13   S      37            29.2101553    0.232184443216
     13   S      38             9.2866630    0.467941348435
     13   S      39             3.1639270    0.362311985337

     14   L      40             7.8682723   -0.119332419775    0.068999066591
     14   L      41             1.8812885   -0.160854151696    0.316423960957
     14   L      42             0.5442493    1.143456437840    0.744308290898

     15   L      43             0.1687145    1.000000000000    1.000000000000

     16   D      44             0.8000000    1.000000000000

 H         

     17   S      45            18.7311370    0.033494604338
     17   S      46             2.8253944    0.234726953484
     17   S      47             0.6401217    0.813757326146

     18   S      48             0.1612778    1.000000000000

 H         

     19   S      49            18.7311370    0.033494604338
     19   S      50             2.8253944    0.234726953484
     19   S      51             0.6401217    0.813757326146

     20   S      52             0.1612778    1.000000000000

 H         

     21   S      53            18.7311370    0.033494604338
     21   S      54             2.8253944    0.234726953484
     21   S      55             0.6401217    0.813757326146

     22   S      56             0.1612778    1.000000000000

 H         

     23   S      57            18.7311370    0.033494604338
     23   S      58             2.8253944    0.234726953484
     23   S      59             0.6401217    0.813757326146

     24   S      60             0.1612778    1.000000000000

 TOTAL NUMBER OF BASIS SET SHELLS             =   24
 NUMBER OF CARTESIAN GAUSSIAN BASIS FUNCTIONS =   68
 NUMBER OF ELECTRONS                          =   30
 CHARGE OF MOLECULE                           =    0
 SPIN MULTIPLICITY                            =    1
 NUMBER OF OCCUPIED ORBITALS (ALPHA)          =   15
 NUMBER OF OCCUPIED ORBITALS (BETA )          =   15
 TOTAL NUMBER OF ATOMS                        =    8
 THE NUCLEAR REPULSION ENERGY IS      102.7171806229

 SELECTED MURRAY-HANDY-LAMING RADIAL GRID

 LEGACY BECKE'S FUZZY CELL METHOD

 SELECTED ORIGINAL BECKE'S PARTITION FUNCTION

     LEBEDEV GRID-BASED DFT OPTIONS
     ------------------------------
     DFTTYP=B3LYP   
     NRAD  =      96     NLEB  =     590
     NRAD0 =      24     NLEB0 =     110
     SWOFF =    5.00E-03 (PURE SCF -> DFT)
     SWITCH=    3.00E-04 (COARSE -> TIGHT GRID)
     THRESH=    0.00E+00 GTHRE=    1.00E+00

 GRIMME'S EMPIRICAL DISPERSION CORRECTION= F

     $CONTRL OPTIONS
     ---------------
 SCFTYP=RHF          RUNTYP=OPTIMIZE     EXETYP=RUN     
 MPLEVL=       0     CITYP =NONE         CCTYP =NONE         VBTYP =NONE    
 DFTTYP=B3LYP        TDDFT =NONE    
 MULT  =       1     ICHARG=       0     NZVAR =       0     COORD =UNIQUE  
 PP    =NONE         RELWFN=NONE         LOCAL =NONE         NUMGRD=       F
 ISPHER=      -1     NOSYM =       0     MAXIT =     200     UNITS =ANGS    
 PLTORB=       F     MOLPLT=       F     AIMPAC=       F     FRIEND=        
 NPRINT=       7     IREST =       0     GEOM  =INPUT   
 NORMF =       0     NORMP =       0     ITOL  =      20     ICUT  =       9
 INTTYP=BEST         GRDTYP=BEST         QMTTOL= 1.0E-06

     $SYSTEM OPTIONS
     ---------------
  REPLICATED MEMORY=   250000000 WORDS (ON EVERY NODE).
 DISTRIBUTED MEMDDI=           0 MILLION WORDS IN AGGREGATE,
 MEMDDI DISTRIBUTED OVER   1 PROCESSORS IS           0 WORDS/PROCESSOR.
 TOTAL MEMORY REQUESTED ON EACH PROCESSOR=   250000000 WORDS.
 TIMLIM=        2879.00 MINUTES, OR       2.0 DAYS.
 PARALL= F  BALTYP=  DLB     KDIAG=    0  COREFL= F
 MXSEQ2=     300 MXSEQ3=     150  mem10=         0

          ----------------
          PROPERTIES INPUT
          ----------------

     MOMENTS            FIELD           POTENTIAL          DENSITY
 IEMOM =       1   IEFLD =       0   IEPOT =       0   IEDEN =       0
 WHERE =COMASS     WHERE =NUCLEI     WHERE =NUCLEI     WHERE =NUCLEI  
 OUTPUT=BOTH       OUTPUT=BOTH       OUTPUT=BOTH       OUTPUT=BOTH    
 IEMINT=       0   IEFINT=       0                     IEDINT=       0
                                                       MORB  =       0
          EXTRAPOLATION IN EFFECT
          DIIS IN EFFECT
 ORBITAL PRINTING OPTION: NPREO=     1    68     2     1

     -------------------------------
     INTEGRAL TRANSFORMATION OPTIONS
     -------------------------------
     NWORD  =            0
     CUTOFF = 1.0E-09     MPTRAN =       0
     DIRTRF =       T     AOINTS =DUP     

          ----------------------
          INTEGRAL INPUT OPTIONS
          ----------------------
 NOPK  =       1 NORDER=       0 SCHWRZ=       T

     ------------------------------------------
     THE POINT GROUP IS C1 , NAXIS= 0, ORDER= 1
     ------------------------------------------

     DIMENSIONS OF THE SYMMETRY SUBSPACES ARE
 A   =   68

 ..... DONE SETTING UP THE RUN .....
 STEP CPU TIME =     0.01 TOTAL CPU TIME =          0.0 (      0.0 MIN)
 TOTAL WALL CLOCK TIME=          0.0 SECONDS, CPU UTILIZATION IS    33.33%


          -----------------------------
          STATIONARY POINT LOCATION RUN
          -----------------------------

 OBTAINING INITIAL HESSIAN, HESS=GUESS   
 CARTESIAN COORDINATE OPTIMIZATION USING BADGER'S RULE FORCE CONSTANT GUESS

          PARAMETERS CONTROLLING GEOMETRY SEARCH ARE
          METHOD =QA                  UPHESS =BFGS    
          NNEG   =         0          NFRZ   =         0
          NSTEP  =       999          IFOLOW =         1
          HESS   =GUESS               RESTAR =         F
          IHREP  =         0          HSSEND =         T
          NPRT   =         0          NPUN   =         0
          OPTTOL = 5.000E-04          RMIN   = 1.500E-03
          RMAX   = 1.000E-01          RLIM   = 7.000E-02
          DXMAX  = 3.000E-01          PURIFY =         F
          MOVIE  =         F          TRUPD  =         T
          TRMAX  = 5.000E-01          TRMIN  = 5.000E-02
          ITBMAT =         5          STPT   =         F
          STSTEP = 1.000E-02          PROJCT=          T

 BEGINNING GEOMETRY SEARCH POINT NSERCH=   0 ...

 COORDINATES OF ALL ATOMS ARE (ANGS)
   ATOM   CHARGE       X              Y              Z
 ------------------------------------------------------------
 O           8.0  -1.0848600000   1.3119000000   0.1783700000
 C           6.0  -0.0418000000   0.7131900000  -0.0533500000
 C           6.0   0.0165500000  -0.7656200000  -0.0616000000
 C           6.0   1.1912800000  -1.4081900000  -0.0837500000
 H           1.0   0.9035800000   1.2388600000  -0.2591000000
 H           1.0  -0.9365400000  -1.2868000000  -0.0363300000
 H           1.0   2.1459100000  -0.8870700000  -0.0884200000
 H           1.0   1.2207700000  -2.4943000000  -0.0810800000

          ********************
          1 ELECTRON INTEGRALS
          ********************
 ...... END OF ONE-ELECTRON INTEGRALS ......
 STEP CPU TIME =     0.00 TOTAL CPU TIME =          0.0 (      0.0 MIN)
 TOTAL WALL CLOCK TIME=          0.0 SECONDS, CPU UTILIZATION IS    25.00%

          -------------
          GUESS OPTIONS
          -------------
          GUESS =HUCKEL            NORB  =       0          NORDER=       0
          MIX   =       F          PRTMO =       F          PUNMO =       F
          TOLZ  = 1.0E-08          TOLE  = 1.0E-05
          SYMDEN=       F          PURIFY=       F

 INITIAL GUESS ORBITALS GENERATED BY HUCKEL   ROUTINE.
 HUCKEL GUESS REQUIRES     42032 WORDS.

 SYMMETRIES FOR INITIAL GUESS ORBITALS FOLLOW.   BOTH SET(S).
    15 ORBITALS ARE OCCUPIED (    4 CORE ORBITALS).
     5=A        6=A        7=A        8=A        9=A       10=A       11=A   
    12=A       13=A       14=A       15=A       16=A       17=A       18=A   
    19=A       20=A       21=A       22=A       23=A       24=A       25=A   
 ...... END OF INITIAL ORBITAL SELECTION ......
 STEP CPU TIME =     0.01 TOTAL CPU TIME =          0.0 (      0.0 MIN)
 TOTAL WALL CLOCK TIME=          0.1 SECONDS, CPU UTILIZATION IS    28.57%

                    ----------------------
                    AO INTEGRAL TECHNOLOGY
                    ----------------------
     S,P,L SHELL ROTATED AXIS INTEGRALS, REPROGRAMMED BY
        KAZUYA ISHIMURA (IMS) AND JOSE SIERRA (SYNSTAR).
     S,P,D,L SHELL ROTATED AXIS INTEGRALS PROGRAMMED BY
        KAZUYA ISHIMURA (INSTITUTE FOR MOLECULAR SCIENCE).
     S,P,D,F,G SHELL TO TOTAL QUARTET ANGULAR MOMENTUM SUM 5,
        ERIC PROGRAM BY GRAHAM FLETCHER (ELORET AND NASA ADVANCED
        SUPERCOMPUTING DIVISION, AMES RESEARCH CENTER).
     S,P,D,F,G,L SHELL GENERAL RYS QUADRATURE PROGRAMMED BY
        MICHEL DUPUIS (PACIFIC NORTHWEST NATIONAL LABORATORY).

          --------------------
          2 ELECTRON INTEGRALS
          --------------------

 DIRECT SCF METHOD SKIPS INTEGRAL STORAGE ON DISK.
 DIRECT TRANSFORMATION SKIPS AO INTEGRAL STORAGE ON DISK.
  ...... END OF TWO-ELECTRON INTEGRALS .....
 STEP CPU TIME =     0.01 TOTAL CPU TIME =          0.0 (      0.0 MIN)
 TOTAL WALL CLOCK TIME=          0.1 SECONDS, CPU UTILIZATION IS    30.00%

          --------------------------
             R-B3LYP SCF CALCULATION
          --------------------------

     NUCLEAR ENERGY =       102.7171806229
     MAXIT =  200     NPUNCH=    2
     EXTRAP=T  DAMP=F  SHIFT=F  RSTRCT=F  DIIS=T  DEM=F  SOSCF=F
         DENSITY MATRIX CONVERGENCE THRESHOLD=  2.00E-05
     COARSE -> FINE DFT GRID SWITCH THRESHOLD=  3.00E-04 (SWITCH IN $DFT)
                   HF -> DFT SWITCH THRESHOLD=  5.00E-03 (SWOFF IN $DFT)
     MEMORY REQUIRED FOR RHF ITERS=    620217 WORDS.

 DIRECT SCF CALCULATION, SCHWRZ=T   FDIFF=T,  DIRTHR=  0.00E+00 NITDIR=10
 SCHWARZ INEQUALITY OVERHEAD:      2343 INTEGRALS, T=        0.01

 DFT CODE IS SWITCHING FROM THE FINE GRID NRAD= 96,  NLEB=  590
                      TO THE COARSE GRID NRAD0= 24, NLEB0=  110

     EXCHANGE FUNCTIONAL   =B88&HFX   
     CORRELATION FUNCTIONAL=LYP88&VWN5
     DFT THRESHOLD         =.883E-08
     GRID CHANGE THRESHOLD =.300E-03
 FOR AN EULER-MACLAURIN QUADRATURE USING  96 RADIAL POINTS:
 SMALLEST GAUSSIAN PRIMITIVE EXPONENT=        0.1612777588 OF TYPE -S-
 ON ATOM NUMBER   5 HAS RADIAL NORMALIZATION=  1.000000
  LARGEST GAUSSIAN PRIMITIVE EXPONENT=     5484.6716600000 OF TYPE -S-
 ON ATOM NUMBER   1 HAS RADIAL NORMALIZATION=  1.000000
 DFT IS SWITCHED OFF, PERFORMING PURE SCF UNTIL SWOFF THRESHOLD IS REACHED.

                                                                                   NONZERO     BLOCKS
 ITER EX DEM     TOTAL ENERGY        E CHANGE  DENSITY CHANGE    DIIS ERROR      INTEGRALS    SKIPPED
   1  0  0     -190.2054113160  -190.2054113160   0.306517907   0.510578251        2574400       4298
          * * *   INITIATING DIIS PROCEDURE   * * *
   2  1  0     -190.6943262749    -0.4889149589   0.156698684   0.093545627        2574103       4567
   3  2  0     -190.7278744884    -0.0335482135   0.080744989   0.106126883        2569443       4959
   4  3  0     -190.7578614082    -0.0299869197   0.014482987   0.006890322        2561142       5346
   5  4  0     -190.7585519062    -0.0006904980   0.006367606   0.003467269        2542798       5950
   6  5  0     -190.7586373004    -0.0000853942   0.002661366   0.001307414        2518236       6713
 CONVERGED TO SWOFF, SO DFT CALCULATION IS NOW SWITCHED ON.
          * * *   INITIATING DIIS PROCEDURE   * * *
   7  6  0     -191.7798691899    -1.0212318895   0.119768417   0.089390455        2574676       4306
   8  7  0     -191.7973944683    -0.0175252784   0.071748792   0.027133817        2570553       4868
   9  8  0     -191.7920932432     0.0053012252   0.057366443   0.044133914        2560933       5259
  10  9  0     -191.8017167980    -0.0096235548   0.009725862   0.011583471        2555021       5540
  11 10  0     -191.8020459499    -0.0003291520   0.001520139   0.000960741        2525476       6289
  12 11  0     -191.8020477406    -0.0000017906   0.000833097   0.000508067        2468966       7728
  13 12  0     -191.8020499534    -0.0000022128   0.000077666   0.000063067        2417370       8984
 DFT CODE IS SWITCHING BACK TO THE FINE GRID
          * * *   INITIATING DIIS PROCEDURE   * * *
  14 13  0     -191.7999846198     0.0020653336   0.001851459   0.001421320        2574695       4265
  15 14  0     -191.7999933375    -0.0000087177   0.000798568   0.000244200        2498907       7212
  16 15  0     -191.7999929015     0.0000004360   0.000505235   0.000480854        2428447       9012
  17 16  0     -191.7999936187    -0.0000007172   0.000086710   0.000055685        2395173       9691
  18 17  0     -191.7999936293    -0.0000000106   0.000030976   0.000028577        2330433      10902
  19 18  0     -191.7999936327    -0.0000000034   0.000007621   0.000005675        2269477      12170
  20 19  0     -191.7999936328    -0.0000000001   0.000004235   0.000002568        2178883      14486

          -----------------
          DENSITY CONVERGED
          -----------------
     TIME TO FORM FOCK OPERATORS=       9.4 SECONDS (       0.5 SEC/ITER)
     FOCK TIME ON FIRST ITERATION=       0.1, LAST ITERATION=       1.1
     TIME TO SOLVE SCF EQUATIONS=       0.1 SECONDS (       0.0 SEC/ITER)

 FINAL R-B3LYP ENERGY IS     -191.7999936328 AFTER  20 ITERATIONS
 DFT EXCHANGE + CORRELATION ENERGY =       -21.1463314981
 TOTAL ELECTRON NUMBER             =        29.9999951029

          ------------
          EIGENVECTORS
          ------------

                      1          2          3          4          5
                  -19.1437   -10.2742   -10.2161   -10.2068    -1.0337
                     A          A          A          A          A   
    1  O  1  S    0.992770  -0.000131  -0.000034   0.000019  -0.194574
    2  O  1  S    0.025703   0.000375  -0.000152   0.000045   0.425395
    3  O  1  X    0.000980  -0.000037  -0.000005   0.000007   0.136332
    4  O  1  Y   -0.000550   0.000039   0.000012  -0.000022  -0.079894
    5  O  1  Z   -0.000217   0.000003   0.000009  -0.000016  -0.030373
    6  O  1  S    0.013610  -0.002701   0.000859  -0.000608   0.399751
    7  O  1  X    0.001288  -0.001681   0.000150  -0.000073   0.046264
    8  O  1  Y   -0.000860   0.000842  -0.000191   0.000309  -0.030937
    9  O  1  Z   -0.000304   0.000399  -0.000060   0.000050  -0.010701
   10  O  1 XX   -0.007721  -0.000196  -0.000104   0.000091   0.004631
   11  O  1 YY   -0.007940   0.000115  -0.000067   0.000097  -0.005302
   12  O  1 ZZ   -0.008077   0.000368  -0.000107   0.000001  -0.005252
   13  O  1 XY   -0.000261   0.000285  -0.000024   0.000015  -0.010477
   14  O  1 XZ   -0.000098   0.000157  -0.000001  -0.000027  -0.002770
   15  O  1 YZ    0.000060  -0.000067   0.000011  -0.000012   0.002321
   16  C  2  S    0.000013   0.992820  -0.000116  -0.002339  -0.117971
   17  C  2  S    0.000545   0.048711  -0.000185  -0.000378   0.229979
   18  C  2  X   -0.000039  -0.000687  -0.000015   0.000023  -0.154517
   19  C  2  Y   -0.000033   0.000324   0.000019   0.000267   0.082352
   20  C  2  Z    0.000001   0.000156  -0.000002   0.000005   0.034165
   21  C  2  S   -0.003258  -0.008882   0.000059   0.005015   0.071858
   22  C  2  X    0.002851  -0.002580   0.000530   0.000055   0.035583
   23  C  2  Y   -0.000939   0.001953  -0.000233  -0.002088   0.000188
   24  C  2  Z   -0.000592   0.000522  -0.000099   0.000018  -0.007253
   25  C  2 XX   -0.000633  -0.008730  -0.000034  -0.000147   0.013049
   26  C  2 YY   -0.000221  -0.009174   0.000041  -0.000500  -0.008711
   27  C  2 ZZ   -0.000044  -0.009664  -0.000063  -0.000128  -0.017648
   28  C  2 XY    0.000392  -0.000491  -0.000025  -0.000039  -0.018860
   29  C  2 XZ    0.000160  -0.000250   0.000006  -0.000020  -0.008210
   30  C  2 YZ   -0.000089   0.000110  -0.000002  -0.000008   0.004127
   31  C  3  S   -0.000010   0.002069   0.045075   0.991725  -0.020798
   32  C  3  S    0.000006  -0.000074   0.001740   0.049626   0.037956
   33  C  3  X    0.000037  -0.000078  -0.000366   0.000259  -0.007234
   34  C  3  Y    0.000028  -0.000315   0.000186   0.000074   0.028406
   35  C  3  Z   -0.000000   0.000006   0.000007   0.000008   0.001692
   36  C  3  S    0.000606   0.003077   0.003802  -0.015625   0.023846
   37  C  3  X   -0.000542   0.000511   0.001460  -0.001779  -0.015138
   38  C  3  Y    0.000154   0.001574  -0.001000  -0.001243   0.014529
   39  C  3  Z    0.000093  -0.000118   0.000001   0.000008   0.002704
   40  C  3 XX   -0.000039  -0.000217  -0.000706  -0.009152  -0.000607
   41  C  3 YY   -0.000037  -0.000545  -0.000689  -0.009332   0.007489
   42  C  3 ZZ   -0.000017  -0.000171  -0.000569  -0.009642  -0.002439
   43  C  3 XY    0.000054   0.000046   0.000036  -0.000154  -0.002053
   44  C  3 XZ    0.000016   0.000003   0.000004  -0.000014  -0.000020
   45  C  3 YZ   -0.000001  -0.000012   0.000003   0.000000   0.000572
   46  C  4  S    0.000023  -0.000053   0.991669  -0.045558  -0.004010
   47  C  4  S    0.000110  -0.000241   0.049198  -0.002800   0.009920
   48  C  4  X   -0.000028   0.000006  -0.000023   0.000349  -0.004188
   49  C  4  Y    0.000080  -0.000148   0.000052  -0.000206   0.005674
   50  C  4  Z   -0.000013  -0.000007   0.000026  -0.000006   0.000161
   51  C  4  S   -0.000099   0.000033  -0.012720   0.005863   0.010800
   52  C  4  X    0.000026  -0.000121   0.000798  -0.001487  -0.005501
   53  C  4  Y   -0.000569   0.000728  -0.000463   0.001678  -0.011044
   54  C  4  Z    0.000008   0.000051  -0.000049   0.000032  -0.000294
   55  C  4 XX    0.000028   0.000079  -0.009270   0.000058   0.000063
   56  C  4 YY   -0.000002   0.000020  -0.009414   0.000212   0.000195
   57  C  4 ZZ    0.000064  -0.000131  -0.009783   0.000323   0.000107
   58  C  4 XY    0.000015  -0.000044  -0.000120   0.000067  -0.000284
   59  C  4 XZ    0.000007  -0.000009  -0.000007   0.000007   0.000049
   60  C  4 YZ    0.000003   0.000005   0.000002  -0.000001  -0.000001
   61  H  5  S   -0.000041  -0.000258  -0.000060  -0.000115   0.028447
   62  H  5  S   -0.000541   0.002440  -0.000168  -0.000095  -0.016651
   63  H  6  S   -0.000026  -0.000044  -0.000099  -0.000354   0.007806
   64  H  6  S   -0.000305   0.000319   0.000013   0.001674  -0.001533
   65  H  7  S    0.000088  -0.000123  -0.000338  -0.000122   0.002971
   66  H  7  S    0.000035  -0.000044   0.002155  -0.000506   0.003671
   67  H  8  S   -0.000035   0.000043  -0.000332  -0.000017   0.000065
   68  H  8  S   -0.000293   0.000515   0.002133   0.000070  -0.007003

                      6          7          8          9         10
                   -0.7980    -0.6451    -0.5734    -0.4768    -0.4692
                     A          A          A          A          A   
    1  O  1  S    0.040121  -0.067698  -0.035518   0.014463  -0.064724
    2  O  1  S   -0.093008   0.154851   0.081749  -0.025017   0.135231
    3  O  1  X   -0.010924  -0.039633  -0.100058   0.130841  -0.179137
    4  O  1  Y   -0.009283   0.046564  -0.046705   0.140530   0.189600
    5  O  1  Z    0.002973   0.009988   0.018723  -0.036382   0.056570
    6  O  1  S   -0.082073   0.188430   0.101167  -0.081349   0.277943
    7  O  1  X    0.002781  -0.024166  -0.054527   0.061221  -0.083670
    8  O  1  Y   -0.005063   0.026627  -0.020724   0.084185   0.099417
    9  O  1  Z   -0.000862   0.005797   0.010581  -0.017130   0.027488
   10  O  1 XX   -0.000134  -0.005741  -0.011572   0.014968  -0.012446
   11  O  1 YY    0.001437  -0.004511   0.005439  -0.008434  -0.011775
   12  O  1 ZZ   -0.000571   0.000702   0.000397   0.003293  -0.001175
   13  O  1 XY   -0.001077   0.005063  -0.000352   0.006975   0.011736
   14  O  1 XZ   -0.000064   0.001827   0.002962  -0.003687   0.004252
   15  O  1 YZ    0.000215  -0.001215   0.000278  -0.001250  -0.003406
   16  C  2  S   -0.051289   0.116363   0.085467  -0.013577   0.050804
   17  C  2  S    0.101432  -0.246856  -0.181360   0.026899  -0.122456
   18  C  2  X    0.068475  -0.111840  -0.186907   0.135991   0.156552
   19  C  2  Y   -0.114298   0.129988  -0.130042   0.288278   0.008301
   20  C  2  Z   -0.012802   0.028184   0.034442  -0.040705  -0.011639
   21  C  2  S    0.082344  -0.211332  -0.182073   0.066222  -0.104809
   22  C  2  X    0.028834  -0.045015  -0.075226   0.032951   0.052267
   23  C  2  Y   -0.028800   0.028730  -0.017461   0.088192   0.011245
   24  C  2  Z   -0.004501   0.011382   0.013509  -0.013588   0.000852
   25  C  2 XX   -0.006228   0.007198  -0.003234   0.004859   0.002430
   26  C  2 YY    0.010579  -0.003995   0.007838   0.000284   0.008511
   27  C  2 ZZ   -0.004562   0.008347   0.006231  -0.001755   0.004574
   28  C  2 XY    0.004006  -0.013247  -0.005883   0.004310  -0.007794
   29  C  2 XZ    0.000668   0.000260   0.002471  -0.001634   0.000023
   30  C  2 YZ   -0.001348   0.002528   0.001813  -0.000447   0.000475
   31  C  3  S   -0.160064   0.057170  -0.096325  -0.008229  -0.031839
   32  C  3  S    0.313523  -0.116877   0.195636   0.014703   0.069121
   33  C  3  X    0.087392   0.103302  -0.149395  -0.003728   0.284219
   34  C  3  Y   -0.014575  -0.186599  -0.112481  -0.260525  -0.058152
   35  C  3  Z   -0.001896   0.000873   0.009014  -0.012642  -0.007466
   36  C  3  S    0.203736  -0.102667   0.211619   0.012011   0.025162
   37  C  3  X   -0.009621   0.030863  -0.052249   0.010860   0.064067
   38  C  3  Y   -0.012081  -0.038488  -0.023347  -0.106676  -0.001244
   39  C  3  Z    0.000184   0.000378   0.002607  -0.007579  -0.001034
   40  C  3 XX    0.005190   0.008548   0.004764   0.001619   0.001491
   41  C  3 YY   -0.000989  -0.009774  -0.006240  -0.000456  -0.011998
   42  C  3 ZZ   -0.015576   0.004937  -0.007972  -0.000776  -0.001537
   43  C  3 XY   -0.001807  -0.009900   0.003858   0.001701  -0.001433
   44  C  3 XZ   -0.000351  -0.000131  -0.000369  -0.000292  -0.000119
   45  C  3 YZ   -0.000120   0.000565   0.000395  -0.001180   0.000051
   46  C  4  S   -0.145109  -0.131385   0.048821   0.007921   0.006682
   47  C  4  S    0.280322   0.262920  -0.098192  -0.014678  -0.016176
   48  C  4  X   -0.085485   0.044204  -0.165843  -0.251204  -0.201650
   49  C  4  Y    0.054763  -0.069700  -0.019412  -0.170332   0.300482
   50  C  4  Z    0.002208   0.001025   0.003779  -0.002307   0.001993
   51  C  4  S    0.219085   0.244965  -0.105987  -0.050848  -0.006664
   52  C  4  X   -0.004805   0.022806  -0.053897  -0.084009  -0.077865
   53  C  4  Y    0.014151  -0.029409  -0.013230  -0.068348   0.124710
   54  C  4  Z    0.000220   0.000115   0.001720  -0.001318   0.000019
   55  C  4 XX    0.006257   0.000052   0.003488  -0.005318   0.005117
   56  C  4 YY    0.002348   0.004234  -0.006661   0.000801  -0.013966
   57  C  4 ZZ   -0.015263  -0.012215   0.004617   0.000970   0.000219
   58  C  4 XY   -0.004539   0.007366  -0.007040  -0.007451  -0.009010
   59  C  4 XZ   -0.000373  -0.000166  -0.000347   0.000118  -0.000155
   60  C  4 YZ    0.000154  -0.000057   0.000201  -0.000386   0.000271
   61  H  5  S    0.033768  -0.105510  -0.180252   0.150421   0.019432
   62  H  5  S    0.004347  -0.030335  -0.095926   0.106103   0.021348
   63  H  6  S    0.075317  -0.044571   0.170170   0.078142  -0.091701
   64  H  6  S    0.002808  -0.009110   0.084736   0.051258  -0.072007
   65  H  7  S    0.074489   0.105587  -0.120445  -0.178011  -0.030765
   66  H  7  S    0.009578   0.036185  -0.065235  -0.122413  -0.024964
   67  H  8  S    0.071692   0.131843  -0.038268   0.081705  -0.188502
   68  H  8  S    0.014833   0.047382  -0.020267   0.059276  -0.133499

                     11         12         13         14         15
                   -0.4151    -0.3932    -0.3884    -0.2879    -0.2532
                     A          A          A          A          A   
    1  O  1  S    0.061540  -0.017606   0.001051   0.000831   0.000494
    2  O  1  S   -0.122949   0.032425  -0.000666  -0.000433   0.006451
    3  O  1  X    0.373037  -0.130429   0.112047  -0.078117   0.271320
    4  O  1  Y   -0.227396  -0.049896   0.076185   0.007042   0.517388
    5  O  1  Z   -0.007465   0.248632   0.356871  -0.267679  -0.060027
    6  O  1  S   -0.269909   0.093458  -0.016686  -0.013946  -0.043047
    7  O  1  X    0.201558  -0.066735   0.063442  -0.059399   0.185427
    8  O  1  Y   -0.121289  -0.035661   0.046876   0.005670   0.372600
    9  O  1  Z   -0.000777   0.149460   0.219822  -0.192354  -0.040499
   10  O  1 XX    0.020945  -0.008082   0.012119  -0.004509   0.015547
   11  O  1 YY    0.008859   0.003344  -0.003108   0.000795  -0.012028
   12  O  1 ZZ   -0.000645  -0.005897  -0.007241   0.005493   0.003201
   13  O  1 XY   -0.015677  -0.002966   0.001152   0.002159   0.009648
   14  O  1 XZ   -0.000952   0.014485   0.018683  -0.011168  -0.003395
   15  O  1 YZ    0.000710  -0.007034  -0.013243   0.005740  -0.002259
   16  C  2  S   -0.018240  -0.019963   0.012601  -0.001223  -0.001383
   17  C  2  S    0.054705   0.041640  -0.029562   0.001086   0.014576
   18  C  2  X   -0.270471   0.089351   0.098171   0.004996  -0.057912
   19  C  2  Y    0.101384  -0.201977   0.102305   0.004585  -0.122473
   20  C  2  Z    0.134344   0.165485   0.290125  -0.047061   0.011165
   21  C  2  S    0.001020   0.076684  -0.032122   0.019116  -0.002123
   22  C  2  X   -0.017367   0.034237   0.032899  -0.011593  -0.030734
   23  C  2  Y    0.009106  -0.073042   0.044551   0.009156   0.073894
   24  C  2  Z    0.046411   0.096070   0.172792  -0.028628   0.003763
   25  C  2 XX   -0.003078  -0.004681  -0.005152   0.005811  -0.036016
   26  C  2 YY   -0.007554  -0.001357   0.002313   0.000040   0.034718
   27  C  2 ZZ   -0.004017   0.004376   0.006591  -0.005154  -0.000334
   28  C  2 XY   -0.018253   0.003415   0.005958  -0.000614  -0.024760
   29  C  2 XZ   -0.003758  -0.008600  -0.014810   0.014338   0.009397
   30  C  2 YZ    0.003026   0.001269   0.004117  -0.020601   0.005533
   31  C  3  S   -0.001533   0.012831  -0.006763   0.001500  -0.039219
   32  C  3  S    0.007178  -0.023144   0.009463  -0.001042   0.076179
   33  C  3  X    0.226421   0.145153  -0.148536   0.010441  -0.027841
   34  C  3  Y   -0.065674   0.167373  -0.088418  -0.004879   0.217760
   35  C  3  Z    0.040828   0.081761   0.152615   0.360982   0.005385
   36  C  3  S   -0.028093  -0.050062   0.045674  -0.017284   0.333591
   37  C  3  X    0.034489   0.050108  -0.035748   0.008632   0.072025
   38  C  3  Y   -0.020564   0.061570  -0.040945  -0.000258   0.111736
   39  C  3  Z    0.025864   0.048161   0.082930   0.242573  -0.007049
   40  C  3 XX   -0.000725  -0.017623   0.009705   0.000908  -0.007228
   41  C  3 YY   -0.003890   0.013448  -0.006337   0.000241   0.004311
   42  C  3 ZZ    0.000486   0.001357  -0.000743  -0.000410  -0.002180
   43  C  3 XY   -0.014071  -0.011545   0.013187   0.000097  -0.000652
   44  C  3 XZ    0.000828   0.001480   0.001823   0.015428   0.001840
   45  C  3 YZ    0.003272   0.004457   0.006236  -0.007638  -0.000398
   46  C  4  S   -0.018694  -0.003140   0.010482   0.000373   0.009314
   47  C  4  S    0.043082   0.005719  -0.021945  -0.001815  -0.016033
   48  C  4  X   -0.175803  -0.150540   0.131831   0.001111   0.054643
   49  C  4  Y    0.141055  -0.238021   0.081917  -0.001369  -0.050337
   50  C  4  Z    0.025232   0.048120   0.083319   0.375982   0.011209
   51  C  4  S    0.067246   0.015025  -0.048351   0.001225  -0.120307
   52  C  4  X   -0.067980  -0.058915   0.055448  -0.002193   0.085605
   53  C  4  Y    0.045607  -0.090023   0.031004   0.004838  -0.054874
   54  C  4  Z    0.013237   0.026107   0.048246   0.274597   0.013409
   55  C  4 XX    0.000024  -0.018021   0.009841  -0.000556  -0.005824
   56  C  4 YY   -0.007239   0.017711  -0.007454  -0.000135   0.007181
   57  C  4 ZZ   -0.000294  -0.000433   0.000930   0.000385   0.001090
   58  C  4 XY   -0.006238  -0.012944   0.008988   0.000009  -0.003680
   59  C  4 XZ   -0.001365  -0.002397  -0.004675  -0.013296  -0.000126
   60  C  4 YZ    0.001249   0.001978   0.003425   0.007694   0.000452
   61  H  5  S   -0.112283  -0.013902   0.040857   0.015412  -0.167141
   62  H  5  S   -0.125045  -0.028183   0.051534   0.013884  -0.257411
   63  H  6  S   -0.109166  -0.160005   0.132262   0.000475  -0.027401
   64  H  6  S   -0.118413  -0.135475   0.116754   0.006618  -0.070387
   65  H  7  S   -0.041704  -0.173393   0.102411  -0.001870  -0.014868
   66  H  7  S   -0.048553  -0.161954   0.103328   0.000053  -0.046572
   67  H  8  S   -0.075123   0.168158  -0.068574   0.000774   0.042731
   68  H  8  S   -0.076805   0.152369  -0.058365   0.003493   0.054954

                     16         17         18         19         20
                   -0.0609     0.0558     0.1106     0.1158     0.1532
                     A          A          A          A          A   
    1  O  1  S   -0.001101   0.004095   0.013832  -0.005827  -0.003878
    2  O  1  S    0.004358  -0.013890  -0.030244   0.003928  -0.018553
    3  O  1  X    0.073198   0.042314  -0.090140   0.021026  -0.071358
    4  O  1  Y   -0.016151   0.022780  -0.011440  -0.038229  -0.009032
    5  O  1  Z    0.343397   0.238501  -0.008463   0.029951   0.024580
    6  O  1  S    0.004930  -0.028392  -0.134510   0.090394   0.197647
    7  O  1  X    0.069625   0.054250  -0.150014   0.000859  -0.039662
    8  O  1  Y   -0.012605   0.014247  -0.060621  -0.079243  -0.070578
    9  O  1  Z    0.325165   0.301377  -0.001727   0.043650   0.020994
   10  O  1 XX    0.001435  -0.003685   0.000696  -0.002990  -0.001900
   11  O  1 YY    0.000317   0.000558   0.003313  -0.007389  -0.014340
   12  O  1 ZZ   -0.000214   0.000575   0.003166  -0.002843  -0.003855
   13  O  1 XY   -0.000553  -0.000272  -0.000163   0.003243  -0.007742
   14  O  1 XZ    0.002420  -0.005750   0.002001  -0.000509  -0.001863
   15  O  1 YZ    0.000246  -0.001976  -0.000114  -0.000446   0.001403
   16  C  2  S   -0.001019   0.003491  -0.043320  -0.030170  -0.110094
   17  C  2  S   -0.000357   0.000697   0.080994   0.031061   0.181223
   18  C  2  X   -0.071133  -0.100539   0.126560   0.133762   0.228195
   19  C  2  Y    0.004385  -0.000666   0.095796   0.086550   0.015833
   20  C  2  Z   -0.335938  -0.382830   0.023865  -0.075977  -0.079194
   21  C  2  S    0.012520  -0.105069   0.506908   0.578066   1.586677
   22  C  2  X   -0.056336  -0.165943   0.283799   0.300941   0.764034
   23  C  2  Y    0.002470   0.053655   0.423402   0.037790  -0.139655
   24  C  2  Z   -0.313328  -0.533507   0.005079  -0.160216  -0.193834
   25  C  2 XX   -0.007326  -0.008966  -0.005668   0.004713  -0.010670
   26  C  2 YY   -0.001732   0.002410  -0.003219  -0.006023  -0.018436
   27  C  2 ZZ    0.007525   0.008536   0.001869  -0.004775   0.002959
   28  C  2 XY    0.002691   0.005331   0.015498  -0.017836   0.000626
   29  C  2 XZ   -0.017844  -0.018193   0.003131  -0.004057   0.002400
   30  C  2 YZ    0.020975  -0.015459  -0.001766   0.000556  -0.001853
   31  C  3  S   -0.000874  -0.007910  -0.001160   0.070652   0.015381
   32  C  3  S   -0.001995   0.005244  -0.013659  -0.110293  -0.022180
   33  C  3  X   -0.000947  -0.009616  -0.074633   0.201866   0.019729
   34  C  3  Y   -0.008264  -0.004179  -0.042575   0.104887  -0.194718
   35  C  3  Z   -0.209843   0.411653  -0.027355   0.036081   0.025805
   36  C  3  S    0.026818   0.189699   0.356940  -1.067018  -0.170482
   37  C  3  X   -0.017268  -0.009908  -0.307923   0.454904   0.019134
   38  C  3  Y   -0.003834   0.034363   0.113746   0.101967  -0.604335
   39  C  3  Z   -0.262419   0.648224  -0.028227   0.071511   0.077369
   40  C  3 XX   -0.000236  -0.001204   0.000812   0.018326  -0.021730
   41  C  3 YY   -0.000872  -0.000998  -0.001270  -0.009280   0.025690
   42  C  3 ZZ   -0.000509  -0.000319   0.000235   0.002835  -0.001274
   43  C  3 XY   -0.004745  -0.008727  -0.004383   0.020198   0.006895
   44  C  3 XZ    0.014957  -0.015332   0.001206  -0.001643   0.000102
   45  C  3 YZ   -0.024555  -0.013819   0.002661  -0.003556  -0.001950
   46  C  4  S   -0.004044  -0.013231  -0.114944  -0.003599   0.055396
   47  C  4  S    0.011318   0.030064   0.182038   0.002767  -0.082832
   48  C  4  X   -0.000910  -0.003669   0.185248   0.110851  -0.121101
   49  C  4  Y    0.007859  -0.003938  -0.100106   0.231984  -0.123320
   50  C  4  Z    0.368156  -0.229365   0.002506  -0.021495  -0.023968
   51  C  4  S    0.030317   0.126837   1.800305  -0.020546  -0.871751
   52  C  4  X    0.011835   0.036575   0.515703   0.250912  -0.255431
   53  C  4  Y   -0.013954  -0.075975  -0.318349   0.603025  -0.421685
   54  C  4  Z    0.432167  -0.464816   0.022051  -0.049467  -0.043385
   55  C  4 XX    0.001184   0.000280   0.002812  -0.014283   0.022100
   56  C  4 YY   -0.001489  -0.003664  -0.015676   0.015365  -0.010401
   57  C  4 ZZ    0.000220   0.001285  -0.005678  -0.002127   0.000488
   58  C  4 XY    0.000360   0.001086  -0.002980  -0.005024   0.010836
   59  C  4 XZ    0.009229  -0.024972   0.002043  -0.002582  -0.002212
   60  C  4 YZ   -0.007702   0.007682   0.000270   0.001127   0.001640
   61  H  5  S   -0.003911   0.017766   0.008752  -0.049860  -0.088580
   62  H  5  S   -0.022845   0.099106  -0.758183  -0.780304  -1.572648
   63  H  6  S   -0.012515  -0.020371   0.008568   0.112108  -0.016718
   64  H  6  S   -0.040521  -0.134191  -0.284905   1.335183  -0.228379
   65  H  7  S    0.005970   0.002065  -0.044650  -0.047975   0.108619
   66  H  7  S   -0.010237  -0.061424  -1.196581  -0.797202   1.105135
   67  H  8  S   -0.006688  -0.015072  -0.082774   0.047710  -0.048003
   68  H  8  S   -0.034137  -0.152170  -1.270402   0.853544  -0.232106

                     21         22         23         24         25
                    0.1923     0.2630     0.3142     0.3513     0.5086
                     A          A          A          A          A   
    1  O  1  S    0.004617  -0.106936  -0.033173  -0.033890   0.003734
    2  O  1  S   -0.009784   0.103632   0.102608  -0.038338   0.027536
    3  O  1  X    0.067141   0.171932   0.055646   0.017173  -0.001274
    4  O  1  Y    0.083532  -0.030287  -0.155355  -0.058193  -0.058329
    5  O  1  Z   -0.004730  -0.038488  -0.018921   0.004152  -0.030545
    6  O  1  S   -0.098534   2.092312   0.269502   1.007241  -0.224650
    7  O  1  X    0.057802   0.795993   0.129377   0.192840  -0.088543
    8  O  1  Y    0.136363  -0.288091  -0.302406  -0.463541   0.033511
    9  O  1  Z   -0.004312  -0.174959  -0.007452  -0.061698  -0.050769
   10  O  1 XX   -0.004459  -0.017382   0.013074  -0.015562  -0.009462
   11  O  1 YY    0.002716  -0.049505   0.000887  -0.029341   0.003749
   12  O  1 ZZ   -0.000462  -0.059907  -0.002367  -0.048053   0.029402
   13  O  1 XY    0.001880  -0.031791  -0.000635   0.002600   0.013686
   14  O  1 XZ    0.001719  -0.012382  -0.002482  -0.010374  -0.032689
   15  O  1 YZ    0.000354   0.006912  -0.003578   0.002895   0.016841
   16  C  2  S   -0.007416   0.030811   0.072676   0.067533   0.010271
   17  C  2  S    0.033056   0.005803  -0.026408  -0.068451  -0.091370
   18  C  2  X   -0.073798   0.097989   0.121534   0.173348  -0.151194
   19  C  2  Y   -0.210995  -0.163194   0.147392   0.417714   0.016498
   20  C  2  Z    0.013910  -0.030902  -0.001915  -0.066785  -0.640892
   21  C  2  S   -0.261468  -0.801722  -1.690057  -2.041205   0.290517
   22  C  2  X   -0.434345   1.695318  -0.074883   1.398230  -0.023070
   23  C  2  Y   -0.302430  -1.601432   0.713301   1.257223   0.062615
   24  C  2  Z    0.068961  -0.370531  -0.094593  -0.219847   0.700841
   25  C  2 XX    0.001154   0.011178   0.008130  -0.004691   0.001040
   26  C  2 YY   -0.007869  -0.004942   0.015415   0.023038   0.008812
   27  C  2 ZZ    0.003197  -0.017041  -0.008313  -0.017168  -0.010191
   28  C  2 XY   -0.009203  -0.011794  -0.018515   0.015566  -0.019159
   29  C  2 XZ    0.000887  -0.008101  -0.009757   0.001033   0.012111
   30  C  2 YZ    0.002525   0.000304   0.000428  -0.000169   0.016302
   31  C  3  S    0.092866   0.015223  -0.115860  -0.026078  -0.018010
   32  C  3  S   -0.148131   0.058692   0.139736   0.092614  -0.032243
   33  C  3  X    0.151584  -0.116830   0.292141  -0.090206  -0.042636
   34  C  3  Y    0.095284  -0.014160   0.096616   0.293880   0.103486
   35  C  3  Z    0.000256   0.030568  -0.004672  -0.001903  -0.427748
   36  C  3  S   -1.590432  -1.177111   3.482539  -0.695035   0.210773
   37  C  3  X    0.820443  -0.949604   2.039512  -1.905738   0.332595
   38  C  3  Y    0.623972  -0.816838   0.428397   2.541994  -0.292253
   39  C  3  Z   -0.040440   0.129257  -0.001687   0.113839   0.187648
   40  C  3 XX   -0.009866   0.003481   0.007126   0.025667  -0.023692
   41  C  3 YY    0.022219   0.012537  -0.008322  -0.036866  -0.009170
   42  C  3 ZZ    0.000093   0.003122  -0.003230   0.009236   0.013285
   43  C  3 XY   -0.014623   0.034545   0.011467   0.005102   0.016642
   44  C  3 XZ    0.000456  -0.003167  -0.002086  -0.002805  -0.032828
   45  C  3 YZ    0.000150  -0.005572  -0.002081  -0.002714  -0.005316
   46  C  4  S   -0.050076  -0.016842   0.075245  -0.024613   0.003250
   47  C  4  S    0.076451  -0.043993  -0.027563  -0.028332  -0.098939
   48  C  4  X   -0.126145   0.140359   0.009375  -0.190714   0.144095
   49  C  4  Y   -0.261756  -0.124016  -0.115413  -0.100532  -0.085727
   50  C  4  Z    0.005108   0.022179   0.016789  -0.006581  -0.619122
   51  C  4  S    0.607416   1.067340  -2.376708   2.179124  -0.209302
   52  C  4  X   -0.722499  -0.075046   1.742950  -2.087999   0.013850
   53  C  4  Y   -1.003520   0.489537  -1.783992   0.209224   0.024738
   54  C  4  Z    0.018981  -0.050862  -0.051645   0.011726   0.594458
   55  C  4 XX   -0.010884  -0.011948   0.002767  -0.033907  -0.012213
   56  C  4 YY    0.003158   0.021376  -0.002875   0.044149  -0.000013
   57  C  4 ZZ   -0.002928  -0.007091   0.008872  -0.006563  -0.000803
   58  C  4 XY    0.006974  -0.001628  -0.049889  -0.015196  -0.000623
   59  C  4 XZ   -0.000171  -0.003010  -0.000619  -0.000064   0.031125
   60  C  4 YZ   -0.000531  -0.002339  -0.000976   0.000330  -0.007304
   61  H  5  S   -0.027065   0.065843   0.045266   0.042843  -0.050199
   62  H  5  S    0.604967  -0.050659   0.157294  -1.171310   0.076714
   63  H  6  S    0.017460   0.100601   0.033137   0.033899  -0.021711
   64  H  6  S    1.688033  -0.712820   0.872474  -0.181456   0.056984
   65  H  7  S   -0.009190  -0.049425  -0.123158  -0.039854  -0.019098
   66  H  7  S    0.864639  -0.544126   0.214698   1.157677  -0.022091
   67  H  8  S   -0.030771   0.039755  -0.023759   0.190849  -0.003016
   68  H  8  S   -1.485218  -0.140167  -0.843700  -0.309001  -0.035094

                     26         27         28         29         30
                    0.5176     0.5577     0.5852     0.6202     0.6364
                     A          A          A          A          A   
    1  O  1  S    0.017877   0.025532   0.002108   0.002238  -0.003276
    2  O  1  S    0.054175  -0.122839  -0.008472   0.009258  -0.043841
    3  O  1  X   -0.023207   0.016683  -0.042549  -0.033315   0.048388
    4  O  1  Y   -0.198515   0.040339  -0.016591  -0.245560   0.000859
    5  O  1  Z    0.011863  -0.000622  -0.092111   0.032825  -0.040999
    6  O  1  S   -0.750752  -0.282899  -0.031194  -0.285762   0.073020
    7  O  1  X   -0.267627  -0.181433  -0.041531  -0.115322   0.034193
    8  O  1  Y    0.110347   0.253259  -0.006762  -0.034096  -0.024690
    9  O  1  Z    0.097101   0.036086  -0.083591   0.020321   0.127158
   10  O  1 XX    0.027022  -0.018471  -0.015898  -0.033946  -0.032139
   11  O  1 YY   -0.001199  -0.037189   0.000200   0.001831  -0.013341
   12  O  1 ZZ    0.038212   0.006291   0.011309   0.016868  -0.013693
   13  O  1 XY    0.028525   0.004211   0.004813   0.016990   0.008171
   14  O  1 XZ    0.010805   0.002553  -0.035559   0.014386   0.012688
   15  O  1 YZ   -0.013491   0.001302   0.028398  -0.003643  -0.034766
   16  C  2  S    0.029488  -0.046353  -0.001276  -0.003991   0.001241
   17  C  2  S   -0.306550  -0.470806   0.077002   0.033940  -0.061443
   18  C  2  X   -0.000772  -0.129038  -0.175223  -0.014500   0.136491
   19  C  2  Y    0.206492   0.290931  -0.052784  -0.479763  -0.055809
   20  C  2  Z    0.149062  -0.024394  -0.705819   0.036025   0.192012
   21  C  2  S    0.940773   1.297808  -0.051202  -0.048589  -0.074441
   22  C  2  X   -0.611487  -0.261799   0.220234   0.106180  -0.165256
   23  C  2  Y    0.290086  -0.675424   0.160347   1.283972   0.111467
   24  C  2  Z   -0.096933   0.110382   0.994131  -0.075383  -0.640769
   25  C  2 XX   -0.029417  -0.041018   0.010411   0.005921   0.000247
   26  C  2 YY    0.036903  -0.131127   0.013675  -0.017211  -0.015468
   27  C  2 ZZ   -0.012018   0.038191  -0.007553   0.011159   0.008560
   28  C  2 XY   -0.054702  -0.056358   0.005981  -0.073242  -0.025582
   29  C  2 XZ   -0.005528   0.023698   0.016239   0.002505  -0.024808
   30  C  2 YZ    0.000043   0.005907   0.013127   0.005667   0.016354
   31  C  3  S   -0.069512  -0.004818   0.005352   0.015725  -0.003102
   32  C  3  S   -0.178949  -0.382986   0.055360   0.356435  -0.022558
   33  C  3  X   -0.153461  -0.048367   0.010081   0.036578  -0.017719
   34  C  3  Y    0.414906  -0.507790   0.040917  -0.181125  -0.103652
   35  C  3  Z    0.135027   0.081404   0.118677   0.104293  -0.941944
   36  C  3  S    0.590372   0.217450   0.016610  -0.066894   0.072200
   37  C  3  X    1.018627   0.398886  -0.045091   0.183448   0.102343
   38  C  3  Y   -0.733007  -0.101103  -0.014549   0.561230   0.170005
   39  C  3  Z   -0.099267  -0.123220  -0.237637  -0.122329   1.522432
   40  C  3 XX   -0.096756  -0.021007   0.012203   0.040377  -0.010497
   41  C  3 YY   -0.051316  -0.093971   0.016770   0.103823   0.004274
   42  C  3 ZZ    0.052231   0.017227  -0.008878  -0.045158  -0.000216
   43  C  3 XY    0.054918   0.039472  -0.003794   0.087585   0.014697
   44  C  3 XZ    0.015051   0.007697   0.042618  -0.001918  -0.015572
   45  C  3 YZ   -0.002707  -0.003652  -0.026905  -0.002434  -0.028432
   46  C  4  S    0.008896   0.006104  -0.000893   0.034182   0.007295
   47  C  4  S   -0.349509  -0.265838   0.028775   0.355267   0.014880
   48  C  4  X    0.550386  -0.066229  -0.003989   0.089928   0.045951
   49  C  4  Y   -0.241417  -0.304085   0.011741  -0.203358  -0.053471
   50  C  4  Z    0.161371   0.025173   0.717373  -0.072070   0.455370
   51  C  4  S   -0.611171   0.074208  -0.005031  -0.818352  -0.122681
   52  C  4  X   -0.519157   0.755929   0.029094  -0.381906  -0.112789
   53  C  4  Y    0.050208   0.467574  -0.006118   0.515361   0.091798
   54  C  4  Z   -0.157692  -0.012628  -0.759784   0.107470  -0.885713
   55  C  4 XX   -0.032011  -0.054520  -0.003749   0.050423   0.013988
   56  C  4 YY   -0.012994   0.012102   0.005143   0.111127   0.008833
   57  C  4 ZZ    0.000763   0.003560   0.000267  -0.053233  -0.009749
   58  C  4 XY    0.021901  -0.053117  -0.000437   0.006733   0.002642
   59  C  4 XZ   -0.008760  -0.004080  -0.015336  -0.005306   0.015643
   60  C  4 YZ    0.003368   0.004106   0.027839   0.001160  -0.026381
   61  H  5  S   -0.206378  -0.343254  -0.001149  -0.329520  -0.052753
   62  H  5  S    0.117219   0.206914  -0.042265  -0.244417   0.017256
   63  H  6  S   -0.197443   0.116006   0.043801   0.442683   0.014791
   64  H  6  S    0.213204  -0.071067  -0.004359   0.035944   0.026259
   65  H  7  S    0.080579  -0.376042  -0.011824   0.218129   0.048366
   66  H  7  S    0.205971  -0.361836  -0.012834   0.142760   0.022191
   67  H  8  S   -0.033799   0.135563   0.004415   0.438960   0.060029
   68  H  8  S   -0.074728   0.056257  -0.008704   0.241563   0.062109

                     31         32         33         34         35
                    0.6632     0.6747     0.8112     0.8267     0.8558
                     A          A          A          A          A   
    1  O  1  S    0.014616  -0.041378  -0.014045   0.007557  -0.004391
    2  O  1  S   -0.013190   0.128799   0.154578  -0.149976   0.385743
    3  O  1  X   -0.257091   0.272579  -0.262158   0.216264  -0.478230
    4  O  1  Y   -0.089547  -0.195999   0.120622  -0.120329   0.206427
    5  O  1  Z    0.070867  -0.057844   0.040441  -0.019784   0.090488
    6  O  1  S    0.028047  -0.099292   0.564505  -0.129106  -0.329903
    7  O  1  X   -0.071483   0.201307   0.393212  -0.467528   0.807605
    8  O  1  Y   -0.038605  -0.222586  -0.582740   0.300304  -0.432765
    9  O  1  Z    0.036801  -0.056915  -0.081066   0.082797  -0.165259
   10  O  1 XX    0.061778  -0.105700   0.049768  -0.086637   0.223400
   11  O  1 YY    0.010200   0.018625   0.148554  -0.066157   0.112604
   12  O  1 ZZ   -0.013261   0.038794   0.016283  -0.042874   0.132533
   13  O  1 XY   -0.056261   0.091961  -0.065174   0.026410  -0.007197
   14  O  1 XZ   -0.016780   0.039864  -0.007605   0.010711  -0.024353
   15  O  1 YZ    0.004485  -0.017831   0.016962  -0.004324   0.002652
   16  C  2  S   -0.025658   0.050407  -0.001208   0.032410  -0.044851
   17  C  2  S    0.318955  -0.405438  -0.459885  -0.217304   0.140413
   18  C  2  X   -0.399692   0.651153  -0.548896  -0.178017   0.377115
   19  C  2  Y   -0.085178  -0.566733  -0.494408   0.051598   0.138145
   20  C  2  Z    0.172539  -0.150088   0.119005   0.049086  -0.090850
   21  C  2  S   -0.033290  -0.586189  -0.430316   1.882594  -0.876654
   22  C  2  X    0.593539  -0.326419   2.417202  -0.049071  -0.241865
   23  C  2  Y    0.635442   1.157711   1.905643  -0.464217  -0.349741
   24  C  2  Z   -0.325842   0.118808  -0.480780  -0.000108   0.066786
   25  C  2 XX   -0.046492   0.083646  -0.056719   0.070068  -0.185998
   26  C  2 YY    0.041176  -0.053756  -0.086447   0.056853   0.020301
   27  C  2 ZZ    0.021462  -0.043356  -0.013971  -0.069587   0.084740
   28  C  2 XY    0.049364  -0.079370   0.118369  -0.048243   0.039637
   29  C  2 XZ    0.014950  -0.030736   0.012837  -0.030541   0.074357
   30  C  2 YZ   -0.010951   0.022169  -0.020962   0.007630  -0.004973
   31  C  3  S    0.050638   0.023168  -0.026222   0.011786   0.002229
   32  C  3  S   -0.129547  -0.388559  -0.532766   0.217947   0.000206
   33  C  3  X   -0.429129  -0.254720   0.384255   0.074645   0.040399
   34  C  3  Y    0.368014  -0.087518  -0.176467   0.332361   0.066933
   35  C  3  Z   -0.104026   0.087291  -0.032163  -0.004663  -0.009916
   36  C  3  S    0.401247   0.855348   1.488863  -0.744487   0.164849
   37  C  3  X    0.522875  -0.048355  -1.965591  -0.561144  -0.163746
   38  C  3  Y   -0.160006   0.857333   1.395643  -1.766815  -0.326277
   39  C  3  Z    0.220737  -0.124432   0.184505   0.011691   0.006574
   40  C  3 XX    0.092543  -0.011615  -0.108577  -0.019902  -0.031765
   41  C  3 YY    0.032577   0.023278  -0.015652   0.040255   0.034779
   42  C  3 ZZ   -0.054998  -0.033457   0.018341   0.001497   0.002656
   43  C  3 XY   -0.027882  -0.000699  -0.032497  -0.046616  -0.041646
   44  C  3 XZ   -0.006839   0.000562   0.001344   0.002708   0.000429
   45  C  3 YZ   -0.000325  -0.008036   0.001005   0.001905  -0.003608
   46  C  4  S   -0.065965  -0.051997   0.019536  -0.002053  -0.002246
   47  C  4  S   -0.161506  -0.273308  -0.465297  -0.019098   0.243186
   48  C  4  X   -0.349641  -0.188538   0.018311  -0.582895  -0.189422
   49  C  4  Y    0.174471   0.092337  -0.073345  -0.831936  -0.336019
   50  C  4  Z    0.026778  -0.013146   0.014352   0.010210  -0.001172
   51  C  4  S    0.433257   0.961972   1.874517   0.080866  -0.439918
   52  C  4  X    0.491002  -0.104285  -0.585830   1.509053   0.540485
   53  C  4  Y   -0.272581  -0.119146   0.172213   2.311669   0.753440
   54  C  4  Z   -0.081519   0.048077  -0.050801  -0.024790  -0.000274
   55  C  4 XX   -0.157801  -0.051652   0.016681   0.059055   0.071098
   56  C  4 YY   -0.040450  -0.106333  -0.024047  -0.062320  -0.045700
   57  C  4 ZZ    0.075704   0.051317  -0.033629  -0.009034   0.013981
   58  C  4 XY    0.019887   0.028466  -0.014934   0.051534   0.031163
   59  C  4 XZ    0.004791  -0.001649  -0.004601  -0.001588  -0.001306
   60  C  4 YZ   -0.007278   0.003422   0.000807   0.000861  -0.003843
   61  H  5  S   -0.151266  -0.048916   0.318756   0.203862  -0.599772
   62  H  5  S   -0.433445  -0.189901  -2.173232  -0.342941   1.016516
   63  H  6  S    0.337741  -0.028286  -0.176733  -0.010312  -0.105405
   64  H  6  S    0.025007  -0.015342  -0.590935  -0.485461  -0.052776
   65  H  7  S   -0.436898  -0.176969   0.160156   0.368661   0.196503
   66  H  7  S    0.049601   0.019933  -0.104550  -1.827731  -0.697407
   67  H  8  S   -0.219432  -0.333230   0.027815  -0.347852  -0.291428
   68  H  8  S   -0.220674   0.058743  -0.156221   1.630674   0.844044

                     36         37         38         39         40
                    0.8705     0.9056     0.9482     0.9847     1.0603
                     A          A          A          A          A   
    1  O  1  S   -0.000237   0.001952   0.002562  -0.003501   0.000127
    2  O  1  S    0.053422   0.194806   0.180708  -0.044366   0.014070
    3  O  1  X   -0.027727  -0.031776  -0.049912  -0.158809  -0.286945
    4  O  1  Y   -0.022410  -0.007047   0.034261  -0.077681  -0.646879
    5  O  1  Z    0.030533  -0.093234   0.028472  -0.905458   0.141608
    6  O  1  S   -0.076504  -0.713809  -0.735131   0.262127  -0.026921
    7  O  1  X   -0.012942   0.094633   0.102099   0.194698   0.515875
    8  O  1  Y   -0.100517   0.170211   0.081065   0.032045   1.084943
    9  O  1  Z   -0.019009   0.098049  -0.037721   1.204858  -0.227696
   10  O  1 XX    0.038179   0.046782   0.017787  -0.022278  -0.058131
   11  O  1 YY    0.020354   0.015700   0.036210  -0.011611   0.080667
   12  O  1 ZZ   -0.013500   0.118698   0.132701  -0.026152  -0.022963
   13  O  1 XY   -0.018982   0.009441   0.002248  -0.004121  -0.058289
   14  O  1 XZ   -0.014136   0.016525   0.030469  -0.032257   0.014161
   15  O  1 YZ    0.004276  -0.007750  -0.005175   0.009972   0.004789
   16  C  2  S    0.015436  -0.018316  -0.018208   0.005435   0.010654
   17  C  2  S    0.296082  -0.786826  -1.200481   0.090775   0.374618
   18  C  2  X   -0.122674   0.061012  -0.131816  -0.038114   0.170864
   19  C  2  Y   -0.084892   0.161501   0.022003   0.008092   0.134890
   20  C  2  Z    0.006404  -0.023903   0.034423   0.108084  -0.051296
   21  C  2  S   -1.547593   2.532142   3.519024  -0.553822  -1.056713
   22  C  2  X   -0.163593  -0.656486  -0.090902   0.232948  -0.930431
   23  C  2  Y    0.934258  -1.341051  -0.934920   0.305449  -0.787702
   24  C  2  Z    0.003349   0.089113  -0.019131  -0.602835   0.244027
   25  C  2 XX    0.027034  -0.066513  -0.056417   0.017257   0.127260
   26  C  2 YY   -0.002996  -0.049400  -0.072074  -0.015102  -0.096103
   27  C  2 ZZ   -0.002210   0.006469  -0.023594   0.002309   0.017423
   28  C  2 XY    0.071462   0.002116   0.058991  -0.021115   0.079624
   29  C  2 XZ   -0.012118   0.009828   0.006101  -0.000084  -0.041197
   30  C  2 YZ   -0.008218  -0.003556  -0.012710  -0.019599  -0.012622
   31  C  3  S   -0.035997   0.012279   0.015182  -0.004932  -0.028762
   32  C  3  S    0.522596  -0.106240   0.412075  -0.145224  -0.806512
   33  C  3  X   -0.802741  -0.371028  -0.198503  -0.012297   0.001005
   34  C  3  Y   -0.543731   0.301052   0.171252  -0.050076   0.011080
   35  C  3  Z    0.026383   0.008546  -0.011729   0.038977  -0.026615
   36  C  3  S   -0.269629   0.224644  -1.066049   0.549607   2.346185
   37  C  3  X    2.183745   1.686252   1.050818  -0.061478   0.646031
   38  C  3  Y    1.921708  -1.929104  -1.583360   0.531685  -0.520955
   39  C  3  Z   -0.063189  -0.060621  -0.004368   0.093630  -0.013759
   40  C  3 XX   -0.056823   0.075561   0.093488  -0.017970  -0.047946
   41  C  3 YY    0.077548  -0.066195  -0.048831  -0.010377  -0.101182
   42  C  3 ZZ    0.078360  -0.007437  -0.001468   0.003829   0.034978
   43  C  3 XY   -0.117391  -0.048832  -0.044877  -0.014176  -0.055226
   44  C  3 XZ    0.002248  -0.000406   0.007877  -0.038073   0.013352
   45  C  3 YZ    0.005553   0.002521   0.009060  -0.032114   0.004088
   46  C  4  S    0.005688   0.029629  -0.000728  -0.001547   0.015596
   47  C  4  S   -0.009238  -0.211086   1.266656   0.250201   0.582209
   48  C  4  X   -0.011849  -0.584170   0.181312   0.018894  -0.096133
   49  C  4  Y   -0.059787   0.423730  -0.053342  -0.006236  -0.049743
   50  C  4  Z   -0.000297   0.006241   0.019203  -0.062397   0.007366
   51  C  4  S   -0.645463  -0.814254  -3.407601  -0.433069  -2.324166
   52  C  4  X   -0.086614   1.791127   0.258050  -0.228906   0.868220
   53  C  4  Y   -0.573585  -0.927855  -0.001718  -0.198245   0.043418
   54  C  4  Z    0.007387  -0.018136  -0.047133   0.076228  -0.029860
   55  C  4 XX    0.029487  -0.062267   0.037888   0.028402  -0.002254
   56  C  4 YY   -0.052794   0.119708   0.077638  -0.014305   0.056775
   57  C  4 ZZ    0.006894  -0.098200   0.059218   0.022582   0.026710
   58  C  4 XY    0.063568   0.126710  -0.047931   0.007352   0.018203
   59  C  4 XZ    0.000733   0.002085  -0.000295  -0.008927   0.000303
   60  C  4 YZ   -0.000870  -0.001180   0.007485  -0.028457   0.005272
   61  H  5  S    0.127377  -0.017666   0.302709  -0.076030   0.153925
   62  H  5  S   -0.194350   0.361730  -0.794116  -0.132067   0.801081
   63  H  6  S   -0.663167  -0.017335  -0.001536  -0.028416  -0.151136
   64  H  6  S    2.554029   0.313005   0.292682   0.061472  -0.161043
   65  H  7  S    0.107529   0.519067  -0.379571   0.023903   0.007607
   66  H  7  S    0.059772  -1.091456   0.969199   0.268943  -0.023045
   67  H  8  S    0.010903   0.605186  -0.221346  -0.132135   0.133942
   68  H  8  S   -0.085220  -1.192004   0.768986   0.148353   0.356478

                     41         42         43         44         45
                    1.0819     1.1475     1.2390     1.3630     1.4326
                     A          A          A          A          A   
    1  O  1  S   -0.009596   0.001180   0.033069   0.017813  -0.029960
    2  O  1  S    0.086227   0.129875   0.339231   0.085188  -0.515068
    3  O  1  X    0.238691   0.326310   0.013046  -0.054616  -0.089263
    4  O  1  Y   -0.240225   0.305792   0.161344   0.112971   0.048870
    5  O  1  Z    0.106693  -0.007717   0.036147  -0.028819   0.007270
    6  O  1  S    0.636340  -0.182645  -1.514218  -0.759422   1.590361
    7  O  1  X   -0.440870  -0.637076  -0.284300  -0.068910   0.411401
    8  O  1  Y    0.100529  -0.739628  -0.032966  -0.022196  -0.288397
    9  O  1  Z   -0.189905   0.032807   0.049074  -0.033616  -0.273078
   10  O  1 XX    0.067214   0.108826   0.095592   0.085091  -0.072514
   11  O  1 YY   -0.001790  -0.004500   0.096456   0.006208  -0.108564
   12  O  1 ZZ   -0.064463  -0.028806   0.150275   0.028217  -0.216558
   13  O  1 XY   -0.014381   0.019072  -0.058665  -0.014735   0.016355
   14  O  1 XZ    0.000385  -0.028501  -0.049756   0.181960   0.199360
   15  O  1 YZ    0.005414  -0.021246  -0.040699   0.055720  -0.119243
   16  C  2  S   -0.000766   0.024119   0.024798   0.011055  -0.008631
   17  C  2  S   -0.279861   0.532082   0.242703   0.176339  -0.053823
   18  C  2  X   -0.309163  -0.038422  -0.053724   0.018618  -0.025616
   19  C  2  Y    0.134002  -0.222972   0.160514   0.053170   0.007761
   20  C  2  Z    0.019140  -0.006912  -0.042918   0.010591  -0.104527
   21  C  2  S   -0.219064  -1.449718  -2.116316  -0.884250  -0.928129
   22  C  2  X    2.133659   0.337841  -1.767937  -1.262219   0.618603
   23  C  2  Y    0.535679   1.740681   1.085186   0.319419  -0.139848
   24  C  2  Z   -0.205903  -0.035056   0.320387   0.272712   0.045312
   25  C  2 XX   -0.031433  -0.013872   0.031685   0.027320  -0.117149
   26  C  2 YY   -0.084228   0.045133  -0.099521  -0.038606   0.022285
   27  C  2 ZZ    0.044124   0.001668   0.075744   0.027832   0.082954
   28  C  2 XY   -0.121918  -0.036014  -0.044225   0.089029   0.096294
   29  C  2 XZ    0.015903  -0.023296  -0.071468   0.030702  -0.284910
   30  C  2 YZ    0.111894   0.014157  -0.204845   0.451368   0.181198
   31  C  3  S    0.003033  -0.045139  -0.028726  -0.014163  -0.005309
   32  C  3  S   -0.069810  -1.299405  -0.733093  -0.288277  -0.100627
   33  C  3  X    0.058150  -0.172734  -0.277274  -0.133452  -0.024476
   34  C  3  Y   -0.115934   0.120400  -0.211471  -0.058334  -0.000178
   35  C  3  Z   -0.021587   0.024776   0.023009  -0.014363   0.157852
   36  C  3  S   -0.117922   5.844011   2.995330   1.375232   0.495818
   37  C  3  X   -1.402518   0.885530   3.413534   1.937902   0.216968
   38  C  3  Y    1.837488  -0.510353   2.353061   0.599164   0.207908
   39  C  3  Z    0.163881  -0.036788  -0.205314  -0.085826  -0.081800
   40  C  3 XX    0.010767  -0.087167   0.023805   0.012775  -0.017714
   41  C  3 YY   -0.042482  -0.035714  -0.086931  -0.034332   0.010996
   42  C  3 ZZ   -0.001375   0.004065   0.039565   0.031736   0.006344
   43  C  3 XY   -0.031220  -0.073489   0.092549   0.019132  -0.029506
   44  C  3 XZ    0.013192  -0.007007  -0.039034   0.200013  -0.537132
   45  C  3 YZ   -0.079378  -0.000994   0.189043  -0.464105  -0.186307
   46  C  4  S   -0.003755   0.025591   0.011974   0.009089   0.005472
   47  C  4  S    0.346052   1.045537   0.233751   0.050358   0.064060
   48  C  4  X   -0.041377  -0.145178   0.092574   0.055222   0.017296
   49  C  4  Y    0.376940  -0.040400  -0.093931  -0.108217   0.014053
   50  C  4  Z   -0.002088   0.000568   0.038515  -0.116635   0.085621
   51  C  4  S    1.055944  -4.198996  -2.741430  -1.595218  -0.338757
   52  C  4  X   -1.239697   1.604301  -0.445549   0.119050   0.022594
   53  C  4  Y   -1.616195   0.111319  -2.089173  -0.662788  -0.361110
   54  C  4  Z   -0.047750  -0.019779   0.037362   0.023876   0.012654
   55  C  4 XX    0.149423  -0.046668   0.023321  -0.040652   0.023856
   56  C  4 YY   -0.079480   0.124801  -0.074142  -0.010690   0.006487
   57  C  4 ZZ   -0.019057   0.037070   0.078811   0.060665  -0.026247
   58  C  4 XY    0.043721   0.055420   0.108199   0.037691   0.007394
   59  C  4 XZ   -0.039082   0.002330   0.124272  -0.355600   0.210270
   60  C  4 YZ    0.009652  -0.005458   0.006547   0.062027  -0.395366
   61  H  5  S   -0.586156  -0.118130   0.416750   0.313919  -0.009154
   62  H  5  S   -0.699763  -0.329172   0.569623   0.468386  -0.088588
   63  H  6  S   -0.099095  -0.322421   0.736617   0.343509   0.055114
   64  H  6  S   -0.088400  -0.470866   1.240713   0.633435   0.065405
   65  H  7  S    0.356928  -0.129148   0.557054   0.190977   0.064103
   66  H  7  S    0.623333   0.097021   0.816049   0.231486   0.059905
   67  H  8  S   -0.468041   0.305418  -0.395170  -0.077225  -0.055130
   68  H  8  S   -0.598425   0.613231  -0.280808  -0.019190  -0.107712

                     46         47         48         49         50
                    1.5407     1.5469     1.6574     1.7653     1.7937
                     A          A          A          A          A   
    1  O  1  S   -0.086776  -0.030580  -0.003546  -0.044026  -0.005420
    2  O  1  S   -1.508712  -0.496621  -0.073788  -0.766611  -0.127957
    3  O  1  X   -0.193562  -0.073301  -0.020995  -0.009373   0.087796
    4  O  1  Y    0.107581   0.006673   0.012422   0.051069   0.235149
    5  O  1  Z    0.112178  -0.075093  -0.037132   0.017489  -0.018216
    6  O  1  S    4.902535   1.712308   0.210404   2.869580   0.361234
    7  O  1  X    1.306162   0.426300   0.074928   0.618668  -0.099504
    8  O  1  Y   -0.909072  -0.269472  -0.052946  -0.620120  -0.431932
    9  O  1  Z   -0.286220  -0.159860   0.062272  -0.165960   0.019881
   10  O  1 XX   -0.409619  -0.032130   0.057882  -0.309986  -0.329363
   11  O  1 YY   -0.281006  -0.083991  -0.018633  -0.547282   0.526662
   12  O  1 ZZ   -0.389796  -0.241064  -0.087391   0.395920  -0.278313
   13  O  1 XY    0.253946   0.008691   0.071502  -0.174901  -0.125955
   14  O  1 XZ   -0.169704   0.172787   0.177423   0.112250   0.003294
   15  O  1 YZ    0.081610  -0.392279   0.260851  -0.019315   0.007442
   16  C  2  S   -0.015861  -0.007223  -0.001007   0.013694  -0.017565
   17  C  2  S   -0.090640  -0.067048   0.016383   0.389408   0.153889
   18  C  2  X   -0.040766  -0.040598   0.005125  -0.029012   0.104193
   19  C  2  Y    0.017362  -0.012009  -0.003155  -0.291412  -0.033514
   20  C  2  Z    0.065649  -0.139574   0.033252   0.011637  -0.023804
   21  C  2  S   -3.292997  -0.740553  -0.207090  -2.317820  -0.057969
   22  C  2  X    2.107229   0.943311  -0.003732   1.859835   0.499607
   23  C  2  Y   -0.253068  -0.250235   0.007534   0.385278   0.589024
   24  C  2  Z   -0.477489  -0.095082  -0.199470  -0.338146  -0.107132
   25  C  2 XX    0.009597  -0.255778   0.040610  -0.085706   0.371939
   26  C  2 YY    0.134027   0.074372   0.003022  -0.284285  -0.300167
   27  C  2 ZZ   -0.182756   0.166585  -0.045693   0.432187  -0.041304
   28  C  2 XY    0.121337   0.024904   0.077590  -0.077790   0.249225
   29  C  2 XZ    0.244376  -0.501443   0.090445   0.142050  -0.107243
   30  C  2 YZ   -0.073438  -0.144702   0.321390  -0.038779  -0.057643
   31  C  3  S   -0.022994   0.001672  -0.003198   0.000009  -0.018189
   32  C  3  S   -0.546810  -0.010576  -0.063939   0.164161   0.243488
   33  C  3  X   -0.123560   0.020423  -0.018707   0.060637  -0.124503
   34  C  3  Y   -0.064354  -0.011753  -0.004950   0.161403   0.234128
   35  C  3  Z   -0.018428  -0.045205   0.031872  -0.002009   0.002435
   36  C  3  S    2.235744  -0.048186   0.297929   0.079386   0.359906
   37  C  3  X    0.491105  -0.458232   0.257894  -1.361924   0.234747
   38  C  3  Y    0.939507   0.104605   0.019166   0.566490  -0.265934
   39  C  3  Z    0.066023  -0.041708   0.194362   0.094342  -0.017285
   40  C  3 XX    0.038074  -0.015994   0.007408   0.012475   0.300319
   41  C  3 YY    0.070746   0.046381  -0.008920  -0.303958  -0.333328
   42  C  3 ZZ   -0.121209  -0.043244   0.004408   0.359261   0.022395
   43  C  3 XY   -0.018916  -0.022855  -0.011637  -0.070437   0.020386
   44  C  3 XZ    0.065479   0.267478  -0.114052   0.007882  -0.001776
   45  C  3 YZ    0.011414   0.128416   0.056771   0.006337  -0.006278
   46  C  4  S    0.013579   0.000285   0.002439   0.007025   0.001940
   47  C  4  S    0.318880   0.014725   0.021192   0.056809  -0.032105
   48  C  4  X    0.018312  -0.006395   0.013766  -0.083927  -0.001143
   49  C  4  Y    0.127740   0.046478  -0.015469   0.029807  -0.136262
   50  C  4  Z   -0.028090  -0.074454   0.033129  -0.005312  -0.010629
   51  C  4  S   -1.118902   0.329142  -0.290626   0.870434  -0.272074
   52  C  4  X    0.073384  -0.068022   0.070645  -0.484539   0.036711
   53  C  4  Y   -1.406366  -0.086694  -0.109936   0.072436  -0.174715
   54  C  4  Z    0.012150   0.082287  -0.086957   0.004176   0.022526
   55  C  4 XX    0.094242   0.032093   0.004400  -0.091745  -0.139456
   56  C  4 YY    0.044271   0.007740   0.011347  -0.106331   0.152528
   57  C  4 ZZ   -0.138399  -0.036778  -0.018882   0.213519  -0.054295
   58  C  4 XY    0.081381   0.019672  -0.000074  -0.137670  -0.200944
   59  C  4 XZ   -0.081750  -0.085835   0.569603   0.029003  -0.038286
   60  C  4 YZ    0.000557   0.373584   0.637655   0.044831   0.036350
   61  H  5  S   -0.056539  -0.068601  -0.002950   0.007987  -0.557106
   62  H  5  S   -0.324760  -0.188167   0.019549  -0.457855  -0.124853
   63  H  6  S    0.023536  -0.033187   0.030973  -0.136542  -0.147208
   64  H  6  S    0.121404  -0.136513   0.061414  -0.305268   0.089926
   65  H  7  S    0.182584  -0.017469   0.024099   0.201338   0.259365
   66  H  7  S    0.279886  -0.022824   0.015740   0.037397  -0.068205
   67  H  8  S   -0.196560  -0.026209  -0.010580   0.010517  -0.188717
   68  H  8  S   -0.471453  -0.083998  -0.011114  -0.009994  -0.022129

                     51         52         53         54         55
                    1.8439     1.9080     1.9873     2.0395     2.1336
                     A          A          A          A          A   
    1  O  1  S   -0.008239  -0.001382  -0.007574  -0.002192   0.004523
    2  O  1  S   -0.094047   0.105730   0.061814  -0.269749  -0.032888
    3  O  1  X    0.032949   0.194917   0.108753  -0.085642  -0.135826
    4  O  1  Y   -0.014418  -0.068316   0.056230   0.157248   0.052176
    5  O  1  Z   -0.048550  -0.034538  -0.026801   0.041148   0.079253
    6  O  1  S    0.474566  -0.075147   0.068137   0.662630  -0.326531
    7  O  1  X    0.097417  -0.084135  -0.121685   0.051392  -0.029436
    8  O  1  Y   -0.089989   0.051496  -0.261994  -0.342112   0.118752
    9  O  1  Z    0.041939   0.009869   0.037834  -0.072229  -0.145387
   10  O  1 XX    0.183171   0.025389  -0.214469  -0.401389   0.030824
   11  O  1 YY   -0.025060   0.250572  -0.228611   0.259379  -0.141720
   12  O  1 ZZ   -0.206413  -0.162306   0.434433   0.017181   0.044302
   13  O  1 XY    0.155773   0.168358  -0.364488  -0.201428   0.046576
   14  O  1 XZ    0.497505  -0.151121   0.175973   0.104169  -0.040995
   15  O  1 YZ    0.594147  -0.089539   0.075144   0.188680   0.363407
   16  C  2  S    0.003181   0.007231   0.012598   0.005802  -0.032075
   17  C  2  S    0.012120  -0.227697   0.095202  -0.080715  -0.148148
   18  C  2  X   -0.005630   0.096902   0.103517  -0.061915  -0.023383
   19  C  2  Y   -0.042815   0.014483   0.162293   0.259515   0.023145
   20  C  2  Z   -0.087716   0.005012  -0.020183   0.026480   0.065703
   21  C  2  S   -0.262079   0.862374  -1.132233  -0.469551   0.871019
   22  C  2  X    0.337344  -0.080301   0.201288   0.776793  -0.278863
   23  C  2  Y   -0.003798  -0.559074   0.955037   0.447205  -0.335504
   24  C  2  Z   -0.184927  -0.011406  -0.088248  -0.050344   0.316390
   25  C  2 XX   -0.080363  -0.066903   0.183481   0.128227   0.066527
   26  C  2 YY   -0.015974   0.092973   0.010804  -0.143968   0.124364
   27  C  2 ZZ    0.116183   0.077614  -0.262588   0.005400  -0.253681
   28  C  2 XY    0.048048   0.317101   0.323898  -0.154615  -0.217154
[...]

          ATOMIC WEIGHTS (AMU)

    1     O                15.99491
    2     C                12.00000
    3     C                12.00000
    4     C                12.00000
    5     H                 1.00782
    6     H                 1.00782
    7     H                 1.00782
    8     H                 1.00782

 MODES    1 TO    6 ARE TAKEN AS ROTATIONS AND TRANSLATIONS.

 ANALYZING SYMMETRY OF NORMAL MODES...

     FREQUENCIES IN CM**-1, IR INTENSITIES IN DEBYE**2/AMU-ANGSTROM**2,
     REDUCED MASSES IN AMU.

                            1           2           3           4           5
       FREQUENCY:         9.73        5.97        0.11        0.01        0.04  
        SYMMETRY:         A           A           A           A           A   
    REDUCED MASS:      5.51405     4.70165     6.96539     7.01085     7.03290
    IR INTENSITY:      0.10070     0.08314     0.00001     0.00000     0.00000

  1   O            X  0.01566459  0.12119041 -0.01080242  0.13052223 -0.02798409
                   Y  0.00349614  0.10005002  0.13223918  0.01009854  0.00045616
                   Z  0.16567095 -0.01366303 -0.00255343  0.02768852  0.13142535
  2   C            X  0.00424309  0.06325573 -0.01022855  0.13041708 -0.02794754
                   Y  0.00077331  0.00575965  0.13319507  0.00992887  0.00057795
                   Z  0.04084634 -0.00540325 -0.00258119  0.02770509  0.13092263
  3   C            X -0.00513848 -0.07084163 -0.00887221  0.13018195 -0.02781157
                   Y  0.00001925  0.00003055  0.13322880  0.00992228  0.00058041
                   Z -0.04248695  0.00622647 -0.00268262  0.02784087  0.13037470
  4   C            X -0.01565217 -0.12913175 -0.00827771  0.13007437 -0.02777137
                   Y -0.00433131 -0.10739150  0.13429853  0.00972777  0.00071251
                   Z -0.18108198  0.01472333 -0.00274071  0.02783255  0.12982217
  5   H            X  0.00024518  0.10960836 -0.01066357  0.13049329 -0.02801555
                   Y -0.00152039 -0.08468808  0.13406167  0.00976809  0.00069544
                   Z -0.01995677 -0.00626255 -0.00253061  0.02761397  0.13083667
  6   H            X -0.00256037 -0.11895484 -0.00839227  0.13010334 -0.02774559
                   Y  0.00274853  0.08689854  0.13234959  0.01008050  0.00046831
                   Z  0.01423326  0.00735660 -0.00270436  0.02794425  0.13043651
  7   H            X -0.01788751 -0.07876984 -0.00878642  0.13015940 -0.02784025
                   Y -0.00722471 -0.19339978  0.13516767  0.00957312  0.00082196
                   Z -0.23572738  0.01332615 -0.00271834  0.02772515  0.12976638
  8   H            X -0.02231363 -0.22803332 -0.00730263  0.12990398 -0.02767143
                   Y -0.00530777 -0.11381167  0.13436328  0.00971723  0.00071562
                   Z -0.24493757  0.02329790 -0.00281384  0.02792845  0.12940375

 TRANS. SAYVETZ    X  0.00913412 -0.02080560 -0.53674525  7.30050623 -1.56211231
                   Y  0.00206268  0.07368784  7.46395850  0.55591743  0.03246902
                   Z -0.03297360  0.00603301 -0.14774759  1.55549950  7.32008637
               TOTAL  0.03427748  0.07680604  7.48469113  7.48505271  7.48497919

   ROT. SAYVETZ    X 15.37403861 -1.86633778  0.01455834 -0.00991103  0.07608529
                   Y 12.00636458 -0.45962222  0.00123667 -0.00319145  0.05343560
                   Z -1.71819531-20.58677310  0.20636069 -0.03667876  0.02099873
               TOTAL 19.58228916 20.67630760  0.20687728  0.03812801  0.09531675

                            6           7           8           9          10
       FREQUENCY:        27.43      174.16      321.36      572.51      612.24  
        SYMMETRY:         A           A           A           A           A   
    REDUCED MASS:      1.63933     3.46684     2.70271     4.85357     1.18359
    IR INTENSITY:      0.01619     0.09490     0.22220     0.13709     0.17557

  1   O            X  0.00174574  0.01042819  0.07208569 -0.04336152 -0.00315929
                   Y  0.00093018 -0.00017605  0.07131931  0.14884871  0.00915306
                   Z  0.00892015  0.12160049 -0.00622159  0.00274235 -0.00057691
  2   C            X -0.00973077 -0.00999361 -0.03962761 -0.11300637 -0.00479469
                   Y -0.00165259 -0.00103876 -0.09926190  0.00957550  0.00074880
                   Z -0.11793463 -0.13257583  0.00525890  0.00611522  0.02807487
  3   C            X  0.00897973 -0.00910521 -0.09307473  0.07168822 -0.00325563
                   Y  0.00027226 -0.00124350 -0.10420266 -0.06586052 -0.00519950
                   Z  0.14266170 -0.12577829  0.00658403  0.00079524 -0.11087348
  4   C            X -0.00066757  0.00617773  0.02215518  0.08508471  0.00621030
                   Y  0.00033869  0.00224824  0.10707070 -0.09826014 -0.00571729
                   Z -0.02216972  0.10292343 -0.00267575 -0.00548539  0.01296299
  5   H            X -0.03593202 -0.02620513  0.03533776 -0.09849659  0.02608032
                   Y -0.00559807 -0.00191673 -0.23707244 -0.02091646  0.00197339
                   Z -0.44927507 -0.32799035  0.00484934 -0.01931896  0.39737786
  6   H            X  0.03139065 -0.01199731 -0.03630402  0.13917241  0.02975721
                   Y  0.00243085 -0.00228501 -0.20339638 -0.19928864 -0.00957644
                   Z  0.46986751 -0.17389419  0.00068948 -0.03030181  0.31698782
  7   H            X -0.02294570  0.01143825 -0.10784191  0.14409212 -0.02117858
                   Y -0.00203614  0.00400239  0.33129670 -0.19430656 -0.01774006
                   Z -0.35087387  0.19041695  0.00592547  0.02272428 -0.46653808
  8   H            X  0.01322867  0.01530053  0.28103209 -0.01756897  0.03735932
                   Y  0.00280880  0.00393271  0.12512172 -0.10817480  0.00100556
                   Z  0.16195247  0.23242615 -0.02188508 -0.03359928  0.59290849

 TRANS. SAYVETZ    X -0.00347045  0.00019156  0.00000976  0.00014243 -0.00003096
                   Y -0.00003482  0.00053842  0.00009392 -0.00049658 -0.00014172
                   Z  0.00371908  0.00016062 -0.00001009 -0.00000469  0.00005961
               TOTAL  0.00508693  0.00059362  0.00009496  0.00051662  0.00015683

   ROT. SAYVETZ    X -5.69604593 -0.01427224 -0.01552191 -0.00239026 -0.00499380
                   Y  3.40160753  0.05452517  0.01170181 -0.00142208  0.00584113
                   Z  0.37031924 -0.00975037 -0.01512815  0.00332995 -0.00089406
               TOTAL  6.64477308  0.05719931  0.02463175  0.00433869  0.00773668

                           11          12          13          14          15
       FREQUENCY:       929.54      991.89     1023.32     1044.16     1180.40  
        SYMMETRY:         A           A           A           A           A   
    REDUCED MASS:      1.57941     1.34053     1.62864     1.17395     2.00786
    IR INTENSITY:      0.51417     0.83990     0.19860     0.19398     0.86650

  1   O            X -0.02993103 -0.00075685  0.00270416  0.00178024  0.00821727
                   Y  0.00954900 -0.00002335  0.00001682  0.00020896  0.02374075
                   Z  0.00214414 -0.00810239  0.03392943  0.02392657 -0.00054865
  2   C            X  0.04512487  0.00243081 -0.01065064 -0.00828064 -0.07474039
                   Y  0.11218812  0.00026304 -0.00015404  0.00024006 -0.13676964
                   Z -0.00376081  0.02901545 -0.13666190 -0.10758662  0.00585177
  3   C            X -0.01336056  0.00215016  0.00755684 -0.00142128  0.06948573
                   Y -0.07335400  0.00041575  0.00085766 -0.00077131  0.11333476
                   Z  0.00125143  0.03341304  0.11618979 -0.01958825 -0.00588193
  4   C            X -0.00392910 -0.00934812 -0.00146029 -0.00023764  0.00506466
                   Y -0.10656109 -0.00198133 -0.00056810 -0.00087868 -0.04888430
                   Z  0.00178482 -0.14292639 -0.02735282 -0.00763129  0.00034637
  5   H            X -0.01047229 -0.00847976  0.04293617  0.03758017 -0.05503363
                   Y  0.21817306 -0.00089504  0.00508057  0.00542241 -0.18382979
                   Z -0.00434224 -0.10573936  0.52394102  0.46269962  0.00794788
  6   H            X -0.15206608 -0.00032197 -0.03337643  0.03946756 -0.17398089
                   Y  0.16808924  0.00092103 -0.00655485  0.00579543  0.55927279
                   Z  0.00554223  0.00278506 -0.50906490  0.59867240  0.00531503
  7   H            X -0.25520154  0.03637369 -0.00848224  0.02749022 -0.10190464
                   Y  0.33894205  0.00812289 -0.00211865  0.00628942  0.14222734
                   Z  0.00873791  0.57357575 -0.13815673  0.43497231  0.00435247
  8   H            X  0.56137004  0.04120527  0.01023251 -0.01444557  0.20273123
                   Y -0.07053528  0.00774379  0.00170924 -0.00405778 -0.03318876
                   Z -0.03533806  0.61645875  0.15424805 -0.27093345 -0.01267162

 TRANS. SAYVETZ    X  0.00003249  0.00000391  0.00000219 -0.00000263 -0.00003655
                   Y -0.00019642  0.00001289 -0.00000321 -0.00002228  0.00017377
                   Z  0.00000181  0.00001485  0.00000868  0.00002915  0.00000118
               TOTAL  0.00019910  0.00002005  0.00000951  0.00003678  0.00017758

   ROT. SAYVETZ    X  0.00192683  0.00409209  0.00400448  0.00351756  0.00108961
                   Y  0.00158461  0.00010072 -0.00323093 -0.00154443  0.00057708
                   Z -0.00143848 -0.00003542 -0.00053023 -0.00123426 -0.00021451
               TOTAL  0.00287974  0.00409349  0.00517261  0.00403508  0.00125152

                           16          17          18          19          20
       FREQUENCY:      1309.06     1409.88     1474.65     1700.66     1803.99  
        SYMMETRY:         A           A           A           A           A   
    REDUCED MASS:      1.47903     1.19623     1.22481     4.02813     9.42839
    IR INTENSITY:      0.05488     0.14162     0.23072     0.05618     5.00084

  1   O            X -0.00864510  0.05270634  0.04995772  0.02811265 -0.12384601
                   Y  0.00668519  0.00716059 -0.01100519 -0.02137317  0.07905468
                   Z  0.00063599 -0.00436160 -0.00404219 -0.00218872  0.00964033
  2   C            X  0.01385677 -0.02626926 -0.02560602 -0.01865471  0.18045235
                   Y  0.01427617 -0.05337982 -0.04319903  0.00631463 -0.13227513
                   Z -0.00117997  0.00254787  0.00261737  0.00168682 -0.01376425
  3   C            X -0.08370833  0.05291964 -0.06310688 -0.14592458 -0.02821058
                   Y -0.09390266 -0.05864617  0.07298158  0.11163053  0.02258071
                   Z  0.00638047 -0.00269277  0.00357015  0.00845630  0.00179441
  4   C            X  0.10283752 -0.01687267 -0.02595728  0.15408857  0.01088962
                   Y  0.04391612  0.01914535  0.00003138 -0.09200893 -0.00353483
                   Z -0.00727419  0.00084047  0.00166495 -0.00888851 -0.00060964
  5   H            X -0.02873089 -0.40563432 -0.27659810 -0.04764275  0.00291770
                   Y  0.08836376  0.65168029  0.39477951  0.05354496  0.15772066
                   Z  0.00115036  0.02874909  0.01928650  0.00284412 -0.00179622
  6   H            X -0.43191170 -0.01481149  0.07069862 -0.01506138  0.03485664
                   Y  0.50821319  0.07246474 -0.17150001 -0.17132806 -0.07785047
                   Z  0.02316161  0.00052860 -0.00318122  0.00250898 -0.00183779
  7   H            X  0.30539980 -0.17367569  0.23487063 -0.04617134 -0.00545102
                   Y -0.29854587  0.25987380 -0.42629911  0.28298849  0.01952616
                   Z -0.01574846  0.00815001 -0.01003331 -0.00047847  0.00032114
  8   H            X -0.10028300 -0.35882106  0.54347632 -0.21237001 -0.00919356
                   Y  0.02101895  0.00846284  0.02288781 -0.13500821 -0.00550971
                   Z  0.00603356  0.02351308 -0.03541632  0.01492511  0.00009214

 TRANS. SAYVETZ    X  0.00002880 -0.00003381 -0.00004604  0.00001154 -0.00001843
                   Y -0.00004885  0.00021323  0.00019870 -0.00019384  0.00034286
                   Z -0.00000031  0.00000105  0.00000128  0.00000152 -0.00000347
               TOTAL  0.00005671  0.00021590  0.00020397  0.00019419  0.00034337

   ROT. SAYVETZ    X  0.00045814  0.00103690  0.00007259  0.00025078  0.00000218
                   Y  0.00076734  0.00082361  0.00072894  0.00026614 -0.00003590
                   Z -0.00311202  0.00134005  0.00161530  0.00184045  0.00076398
               TOTAL  0.00323780  0.00188394  0.00177364  0.00187643  0.00076482

                           21          22          23          24
       FREQUENCY:      2896.19     3157.82     3193.75     3247.77  
        SYMMETRY:         A           A           A           A   
    REDUCED MASS:      1.08413     1.06021     1.09398     1.11478
    IR INTENSITY:      2.52277     0.15076     0.06700     0.18560

  1   O            X -0.00122021 -0.00033190  0.00071936  0.00010641
                   Y  0.00151883  0.00043683 -0.00057138 -0.00005889
                   Z  0.00009196  0.00002389 -0.00005825 -0.00000858
  2   C            X -0.06781909 -0.00028144 -0.00164596 -0.00030127
                   Y -0.04189232 -0.00151824  0.00226446  0.00034229
                   Z  0.00582029  0.00003452  0.00012325  0.00002391
  3   C            X -0.00129425 -0.00208314 -0.07314987 -0.01432830
                   Y  0.00249533 -0.00768195 -0.03715696 -0.00570557
                   Z  0.00006993  0.00022773  0.00521959  0.00100126
  4   C            X  0.00108634 -0.06490434  0.01675916 -0.02873329
                   Y -0.00047220  0.01415745  0.01069208 -0.08749350
                   Z -0.00006510  0.00402118 -0.00122034  0.00296588
  5   H            X  0.83545082  0.00861781  0.00388446  0.00181114
                   Y  0.46118110  0.00784688  0.00237220  0.00447296
                   Z -0.07141114 -0.00077435 -0.00038113 -0.00021326
  6   H            X -0.00581736  0.09007578  0.81355838  0.13532517
                   Y -0.00322737  0.05137796  0.45635978  0.07402613
                   Z  0.00045364 -0.00648988 -0.05870516 -0.00974536
  7   H            X -0.00582101  0.68583998 -0.14189038  0.43064455
                   Y -0.01069292  0.40997550 -0.08446343  0.24323375
                   Z  0.00052878 -0.04947113  0.01023672 -0.03089483
  8   H            X  0.00553013  0.02167904  0.00405324 -0.05316246
                   Y  0.00333073 -0.53514095 -0.07702336  0.78482738
                   Z -0.00038822  0.00535538  0.00068914 -0.00653035

 TRANS. SAYVETZ    X -0.00000905 -0.00001454 -0.00001023 -0.00000701
                   Y -0.00001940  0.00001753  0.00002702 -0.00000425
                   Z  0.00000129  0.00000127  0.00000098  0.00000080
               TOTAL  0.00002145  0.00002281  0.00002891  0.00000823

   ROT. SAYVETZ    X  0.00006135  0.00008410  0.00015379 -0.00012333
                   Y -0.00016559 -0.00007205 -0.00017613 -0.00009642
                   Z -0.00018152 -0.00008358  0.00008498 -0.00025597
               TOTAL  0.00025324  0.00013875  0.00024879  0.00030005

 REFERENCE ON SAYVETZ CONDITIONS - A. SAYVETZ, J.CHEM.PHYS., 7, 383-389(1939).

 NOTE - THE MODES J,K ARE ORTHONORMALIZED ACCORDING TO
 SUM ON I   M(I) * (X(I,J)*X(I,K) + Y(I,J)*Y(I,K) + Z(I,J)*Z(I,K)) = DELTA(J,K)

  MODE FREQ(CM**-1)  SYMMETRY  RED. MASS  IR INTENS.
     1       9.727    A        5.514052    0.100705
     2       5.968    A        4.701649    0.083136
     3       0.109    A        6.965389    0.000010
     4       0.015    A        7.010849    0.000000
     5       0.041    A        7.032896    0.000002
     6      27.434    A        1.639327    0.016190
     7     174.155    A        3.466839    0.094899
     8     321.357    A        2.702709    0.222197
     9     572.514    A        4.853569    0.137092
    10     612.243    A        1.183592    0.175570
    11     929.539    A        1.579415    0.514173
    12     991.891    A        1.340529    0.839897
    13    1023.317    A        1.628642    0.198595
    14    1044.163    A        1.173952    0.193979
    15    1180.397    A        2.007855    0.866500
    16    1309.064    A        1.479025    0.054882
    17    1409.885    A        1.196232    0.141618
    18    1474.646    A        1.224814    0.230720
    19    1700.662    A        4.028126    0.056184
    20    1803.988    A        9.428394    5.000839
    21    2896.193    A        1.084126    2.522769
    22    3157.817    A        1.060214    0.150755
    23    3193.753    A        1.093979    0.066999
    24    3247.766    A        1.114784    0.185596

     -------------------------------
     THERMOCHEMISTRY AT T=  298.15 K
     -------------------------------

 USING IDEAL GAS, RIGID ROTOR, HARMONIC NORMAL MODE APPROXIMATIONS.
 P=  1.01325E+05 PASCAL.
 ALL FREQUENCIES ARE SCALED BY   1.00000
 THE MOMENTS OF INERTIA ARE (IN AMU*BOHR**2)
             37.66161           389.93885           427.58568
 THE ROTATIONAL SYMMETRY NUMBER IS  1.0
 THE ROTATIONAL CONSTANTS ARE (IN GHZ)
     47.87603     4.62403     4.21691
      7 -     24 VIBRATIONAL MODES ARE USED IN THERMOCHEMISTRY.
 THE HARMONIC ZERO POINT ENERGY IS (SCALED BY   1.000)
        0.061609 HARTREE/MOLECULE    13521.674825 CM**-1/MOLECULE 
       38.660447 KCAL/MOL              161.755311 KJ/MOL

               Q               LN Q
 ELEC.     1.00000E+00       0.000000
 TRANS.    1.64832E+07      16.617850
 ROT.      2.83662E+04      10.252952
 VIB.      2.61904E+00       0.962809
 TOT.      1.22457E+12      27.833612

              E         H         G         CV        CP        S
           KJ/MOL    KJ/MOL    KJ/MOL   J/MOL-K   J/MOL-K   J/MOL-K
 ELEC.      0.000     0.000     0.000     0.000     0.000     0.000
 TRANS.     3.718     6.197   -41.195    12.472    20.786   158.954
 ROT.       3.718     3.718   -25.416    12.472    12.472    97.719
 VIB.     165.750   165.750   159.369    32.393    32.393    21.404
 TOTAL    173.187   175.666    92.757    57.336    65.651   278.076
 VIB. THERMAL CORRECTION E(T)-E(0) = H(T)-H(0) =      3994.770 J/MOL

              E         H         G         CV        CP        S
         KCAL/MOL  KCAL/MOL  KCAL/MOL CAL/MOL-K CAL/MOL-K CAL/MOL-K
 ELEC.      0.000     0.000     0.000     0.000     0.000     0.000
 TRANS.     0.889     1.481    -9.846     2.981     4.968    37.991
 ROT.       0.889     0.889    -6.075     2.981     2.981    23.355
 VIB.      39.615    39.615    38.090     7.742     7.742     5.116
 TOTAL     41.393    41.985    22.170    13.704    15.691    66.462
 VIB. THERMAL CORRECTION E(T)-E(0) = H(T)-H(0) =       954.773 CAL/MOL
 ......END OF NORMAL COORDINATE ANALYSIS......
 STEP CPU TIME =     0.00 TOTAL CPU TIME =        757.4 (     12.6 MIN)
 TOTAL WALL CLOCK TIME=        792.2 SECONDS, CPU UTILIZATION IS    95.61%
               1080583  WORDS OF DYNAMIC MEMORY USED
 EXECUTION OF GAMESS TERMINATED NORMALLY Tue Oct  4 21:30:04 2022
 DDI: 263640 bytes (0.3 MB / 0 MWords) used by master data server.

 ----------------------------------------
 CPU timing information for all processes
 ========================================
 0: 753.92 + 4.325 = 757.418
 ----------------------------------------
 ddikick.x: exited gracefully.
----- accounting info -----
Files used on the master node chemcompute-node-0.novalocal were:
-rw-r--r--. 1 chemcomp chemcomp     1031 Oct  4 21:16 /scratch/120804/460761.F05
-rw-rw-r--. 1 chemcomp chemcomp 70451200 Oct  4 21:30 /scratch/120804/460761.F10
-rw-rw-r--. 1 chemcomp chemcomp  4143136 Oct  4 21:29 /scratch/120804/460761.F22
Tue Oct  4 21:30:07 UTC 2022
0.099u 0.036s 13:15.55 0.0%	0+0k 8+208io 0pf+0w
Finishing Up...
Looking for IR data...
Looking for Raman data...
vibramans not found
Looking for thermodynamics data...
Looking for UV-Vis data...
chemcompute.org
{'UTCtimestamp': '2022-10-04T21:30:09.816854', 'cluster': 'jetstream2', 'clusterJobNumber': '120804', 'status': 'COMPLETE', 'nodeList': 'chemcompute-node-0'}
120804
