chemcompute.org
{'UTCtimestamp': '2022-10-04T20:44:16.610757', 'cluster': 'jetstream2', 'clusterJobNumber': '120770', 'status': 'RUNNING', 'nodeList': 'chemcompute-node-0'}
----- GAMESS execution script 'rungms' -----
This job is running on host chemcompute-node-0.novalocal
under operating system Linux at Tue Oct 4 20:44:20 UTC 2022
SLURM has assigned the following compute nodes to this run:
Available scratch disk space (Kbyte units) at beginning of the job is
Filesystem     1K-blocks     Used Available Use% Mounted on
/dev/sda1       62903276 11777616  51125660  19% /
GAMESS temporary binary files will be written to /scratch/120770
GAMESS supplementary output files will be written to /data/slurm/46/460723
Copying input file 460723.inp to your run's scratch directory...
The generated host list is
chemcompute-node-0.novalocal

 Distributed Data Interface kickoff program.
 Initiating 1 compute processes on 1 nodes to run the following command:
 /data/gamess-2019R1-avx2-ddi/gamess.00.x 460723 

          ******************************************************
          *         GAMESS VERSION = 30 JUN 2019 (R1)          *
          *             FROM IOWA STATE UNIVERSITY             *
          * M.W.SCHMIDT, K.K.BALDRIDGE, J.A.BOATZ, S.T.ELBERT, *
          *   M.S.GORDON, J.H.JENSEN, S.KOSEKI, N.MATSUNAGA,   *
          *          K.A.NGUYEN, S.J.SU, T.L.WINDUS,           *
          *       TOGETHER WITH M.DUPUIS, J.A.MONTGOMERY       *
          *         J.COMPUT.CHEM.  14, 1347-1363(1993)        *
          **************** 64 BIT INTEL VERSION ****************

  SINCE 1993, STUDENTS AND POSTDOCS WORKING AT IOWA STATE UNIVERSITY
  AND ALSO IN THEIR VARIOUS JOBS AFTER LEAVING ISU HAVE MADE IMPORTANT
  CONTRIBUTIONS TO THE CODE:
     IVANA ADAMOVIC, CHRISTINE AIKENS, YURI ALEXEEV, POOJA ARORA,
     ANDREY ASADCHEV, ROB BELL, PRADIPTA BANDYOPADHYAY, JONATHAN BENTZ,
     COLLEEN BERTONI, BRETT BODE, KURT BRORSEN, CALEB CARLIN, GALINA CHABAN,
     WEI CHEN, CHEOL HO CHOI, PAUL DAY, ALBERT DEFUSCO, NUWAN DESILVA,
     TIM DUDLEY, DMITRI FEDOROV, ALEX FINDLATER, GRAHAM FLETCHER, 
     MARK FREITAG, KURT GLAESEMANN, ANASTASIA GUNINA,
     DAN KEMP, GRANT MERRILL, NORIYUKI MINEZAWA, JONATHAN MULLIN,
     TAKESHI NAGATA, SEAN NEDD, HEATHER NETZLOFF, BOSILJKA NJEGIC, RYAN OLSON,
     MIKE PAK, BUU PHAM,
     SPENCER PRUITT, LUKE ROSKOP, JIM SHOEMAKER, LYUDMILA SLIPCHENKO,
     TONY SMITH, SAROM SOK LEANG, JIE SONG, TETSUYA TAKETSUGU, SIMON WEBB,
     PENG XU, SOOHAENG YOO, FEDERICO ZAHARIEV

  ADDITIONAL CODE HAS BEEN PROVIDED BY COLLABORATORS IN OTHER GROUPS:
     IOWA STATE UNIVERSITY:
          JOE IVANIC, AARON WEST, LAIMUTIS BYTAUTAS, KLAUS RUEDENBERG
     UNIVERSITY OF TOKYO: KIMIHIKO HIRAO, TAKAHITO NAKAJIMA,
          TAKAO TSUNEDA, MUNEAKI KAMIYA, SUSUMU YANAGISAWA,
          KIYOSHI YAGI, MAHITO CHIBA, SEIKEN TOKURA, NAOAKI KAWAKAMI
     UNIVERSITY OF AARHUS: FRANK JENSEN
     UNIVERSITY OF IOWA: VISVALDAS KAIRYS, HUI LI
     NATIONAL INST. OF STANDARDS AND TECHNOLOGY: WALT STEVENS, DAVID GARMER
     UNIVERSITY OF PISA: BENEDETTA MENNUCCI, JACOPO TOMASI
     UNIVERSITY OF MEMPHIS: HENRY KURTZ, PRAKASHAN KORAMBATH
     UNIVERSITY OF ALBERTA: TOBY ZENG, MARIUSZ KLOBUKOWSKI
     UNIVERSITY OF NEW ENGLAND: MARK SPACKMAN
     MIE UNIVERSITY: HIROAKI UMEDA
     NAT. INST. OF ADVANCED INDUSTRIAL SCIENCE AND TECHNOLOGY: KAZUO KITAURA
     MICHIGAN STATE UNIVERSITY:
          KAROL KOWALSKI, MARTA WLOCH, JEFFREY GOUR, JESSE LUTZ,
          WEI LI, JUN SHEN, J. EMILIANO DEUSTUA, PIOTR PIECUCH
     UNIVERSITY OF MINNESOTA:
          YINAN SHU
     UNIVERSITY OF SILESIA: MONIKA MUSIAL, STANISLAW KUCHARSKI
     FACULTES UNIVERSITAIRES NOTRE-DAME DE LA PAIX:
          OLIVIER QUINET, BENOIT CHAMPAGNE
     UNIVERSITY OF CALIFORNIA - SANTA BARBARA: BERNARD KIRTMAN
     INSTITUTE FOR MOLECULAR SCIENCE:
          KAZUYA ISHIMURA, MICHIO KATOUDA, AND SHIGERU NAGASE
     UNIVERSITY OF NOTRE DAME: ANNA POMOGAEVA, DAN CHIPMAN
     KYUSHU UNIVERSITY:
          HARUYUKI NAKANO,
          FENG LONG GU, JACEK KORCHOWIEC, MARCIN MAKOWSKI, AND YURIKO AOKI,
          HIROTOSHI MORI AND EISAKU MIYOSHI
     PENNSYLVANIA STATE UNIVERSITY:
          TZVETELIN IORDANOV, CHET SWALINA, JONATHAN SKONE,
          SHARON HAMMES-SCHIFFER
     WASEDA UNIVERSITY:
          MASATO KOBAYASHI, TOMOKO AKAMA, TSUGUKI TOUMA,
          TAKESHI YOSHIKAWA, YASUHIRO IKABATA, JUNJI SEINO,
          YUYA NAKAJIMA, HIROMI NAKAI
     NANJING UNIVERSITY: SHUHUA LI
     UNIVERSITY OF NEBRASKA:
          PEIFENG SU, DEJUN SI, NANDUN THELLAMUREGE, YALI WANG, HUI LI
     UNIVERSITY OF ZURICH: ROBERTO PEVERATI, KIM BALDRIDGE
     N. COPERNICUS UNIVERSITY AND JACKSON STATE UNIVERSITY:
          MARIA BARYSZ
     UNIVERSITY OF COPENHAGEN: Jimmy Kromann, CASPER STEINMANN
     TOKYO INSTITUTE OF TECHNOLOGY: HIROYA NAKATA
     NAGOYA UNIVERSITY: YOSHIO NISHIMOTO, STEPHAN IRLE
     MOSCOW STATE UNIVERSITY: VLADIMIR MIRONOV
     A.N.NESMEYANOV INSTITUTE OF ORGANOELEMENT COMPOUNDS OF RUSSIAN ACADEMY OF SCIENCES:
          IGOR S. GERASIMOV

 EXECUTION OF GAMESS BEGUN Tue Oct  4 20:44:20 2022

            ECHO OF THE FIRST FEW INPUT CARDS -
 INPUT CARD>!                                                                               
 INPUT CARD>!   GAMESS Calculation input file                                               
 INPUT CARD>!   MOLECULA DE PRUEBA YDMK                                                     
 INPUT CARD>!                                                                               
 INPUT CARD> $CONTRL SCFTYP=RHF MAXIT=200 RUNTYP=OPTIMIZE                                   
 INPUT CARD>         COORD=UNIQUE MULT=1                                                    
 INPUT CARD>         ICHARG=0                                                               
 INPUT CARD>         DFTTYP=B3LYP                                                           
 INPUT CARD>         MOLPLT=.FALSE. PLTORB=.FALSE.  $END                                    
 INPUT CARD> $SYSTEM TIMLIM=2879 MWORDS=250  $END                                           
 INPUT CARD>                                                                                
 INPUT CARD> $FORCE METHOD=SEMINUM NVIB=2 $END                                              
 INPUT CARD> $STATPT OPTTOL=0.0005 NSTEP=999 $END                                           
 INPUT CARD> $STATPT IHREP=0 HSSEND=.TRUE.  $END                                            
 INPUT CARD>                                                                                
 INPUT CARD> $DFT    METHOD=GRID  NLEB=590  $END                                            
 INPUT CARD>                                                                                
 INPUT CARD> $BASIS  GBASIS=N31 NGAUSS=6                                                    
 INPUT CARD>         NDFUNC=1   NPFUNC=0  $END                                              
 INPUT CARD>                                                                                
 INPUT CARD> $SCF    DIRSCF=.T. $END                                                        
 INPUT CARD> $GUESS  GUESS=HUCKEL  $END                                                     
 INPUT CARD>                                                                                
 INPUT CARD> $DATA                                                                          
 INPUT CARD>   MOLECULA DE PRUEBA YDMK                                                      
 INPUT CARD>  Cs                                                                            
 INPUT CARD>                                                                                
 INPUT CARD>C     6.0     0.71     1.05    -0.00                                            
 INPUT CARD>C     6.0    -0.38     0.27     0.00                                            
 INPUT CARD>C     6.0    -0.33    -1.22     0.00                                            
 INPUT CARD>H     1.0     1.71     0.63    -0.00                                            
 INPUT CARD>H     1.0     0.62     2.13    -0.00                                            
 INPUT CARD>H     1.0    -1.36     0.74     0.00                                            
 INPUT CARD>H     1.0     0.18    -1.60     0.89                                            
 INPUT CARD>H     1.0    -1.35    -1.62     0.00                                            
 INPUT CARD> $END                                                                           
 INPUT CARD>                                                                                
 INPUT CARD>                                                                                
 INPUT CARD>! Customizations after this line are persisted when using Do More Calculations  
  250000000 WORDS OF MEMORY AVAILABLE

     BASIS OPTIONS
     -------------
     GBASIS=N31          IGAUSS=       6      POLAR=POPN31  
     NDFUNC=       1     NFFUNC=       0     DIFFSP=       F
     NPFUNC=       0      DIFFS=       F     BASNAM=        


     RUN TITLE
     ---------
    MOLECULA DE PRUEBA YDMK                                                      

 THE POINT GROUP OF THE MOLECULE IS CS      
 THE ORDER OF THE PRINCIPAL AXIS IS     0

 ATOM      ATOMIC                      COORDINATES (BOHR)
           CHARGE         X                   Y                   Z
 C           6.0     1.3417054513        1.9842122871        0.0000000000
 C           6.0    -0.7180958753        0.5102260167        0.0000000000
 C           6.0    -0.6236095759       -2.3054657050        0.0000000000
 H           1.0     3.2314314390        1.1905273723        0.0000000000
 H           1.0     1.1716301124        4.0251163538        0.0000000000
 H           1.0    -2.5700273433        1.3983972309        0.0000000000
 H           1.0     0.3401506778       -3.0235615804       -1.6818561291
 H           1.0     0.3401506778       -3.0235615804        1.6818561291
 H           1.0    -2.5511300834       -3.0613561001        0.0000000000

          INTERNUCLEAR DISTANCES (ANGS.)
          ------------------------------

                1 C          2 C          3 C          4 H          5 H     

   1 C       0.0000000    1.3403358 *  2.4968981 *  1.0846197 *  1.0837435 *
   2 C       1.3403358 *  0.0000000    1.4908387 *  2.1207782 *  2.1117765 *
   3 C       2.4968981 *  1.4908387 *  0.0000000    2.7539245 *  3.4820971  
   4 H       1.0846197 *  2.1207782 *  2.7539245 *  0.0000000    1.8542114 *
   5 H       1.0837435 *  2.1117765 *  3.4820971    1.8542114 *  0.0000000  
   6 H       2.0930838 *  1.0868763 *  2.2141590 *  3.0719701    2.4191941 *
   7 H       2.8452592 *  2.1453671 *  1.0938921 *  2.8470862 *  3.8598705  
   8 H       2.8452592 *  2.1453671 *  1.0938921 *  2.8470862 *  3.8598705  
   9 H       3.3723137    2.1243823 *  1.0956277 *  3.7981706    4.2359651  

                6 H          7 H          8 H          9 H     

   1 C       2.0930838 *  2.8452592 *  2.8452592 *  3.3723137  
   2 C       1.0868763 *  2.1453671 *  2.1453671 *  2.1243823 *
   3 C       2.2141590 *  1.0938921 *  1.0938921 *  1.0956277 *
   4 H       3.0719701    2.8470862 *  2.8470862 *  3.7981706  
   5 H       2.4191941 *  3.8598705    3.8598705    4.2359651  
   6 H       0.0000000    2.9392686 *  2.9392686 *  2.3600212 *
   7 H       2.9392686 *  0.0000000    1.7800000 *  1.7701412 *
   8 H       2.9392686 *  1.7800000 *  0.0000000    1.7701412 *
   9 H       2.3600212 *  1.7701412 *  1.7701412 *  0.0000000  

  * ... LESS THAN  3.000


     ATOMIC BASIS SET
     ----------------
 THE CONTRACTED PRIMITIVE FUNCTIONS HAVE BEEN UNNORMALIZED
 THE CONTRACTED BASIS FUNCTIONS ARE NOW NORMALIZED TO UNITY

  SHELL TYPE  PRIMITIVE        EXPONENT          CONTRACTION COEFFICIENT(S)

 C         

      1   S       1          3047.5248800    0.001834737132
      1   S       2           457.3695180    0.014037322813
      1   S       3           103.9486850    0.068842622264
      1   S       4            29.2101553    0.232184443216
      1   S       5             9.2866630    0.467941348435
      1   S       6             3.1639270    0.362311985337

      2   L       7             7.8682723   -0.119332419775    0.068999066591
      2   L       8             1.8812885   -0.160854151696    0.316423960957
      2   L       9             0.5442493    1.143456437840    0.744308290898

      3   L      10             0.1687145    1.000000000000    1.000000000000

      4   D      11             0.8000000    1.000000000000

 C         

      5   S      12          3047.5248800    0.001834737132
      5   S      13           457.3695180    0.014037322813
      5   S      14           103.9486850    0.068842622264
      5   S      15            29.2101553    0.232184443216
      5   S      16             9.2866630    0.467941348435
      5   S      17             3.1639270    0.362311985337

      6   L      18             7.8682723   -0.119332419775    0.068999066591
      6   L      19             1.8812885   -0.160854151696    0.316423960957
      6   L      20             0.5442493    1.143456437840    0.744308290898

      7   L      21             0.1687145    1.000000000000    1.000000000000

      8   D      22             0.8000000    1.000000000000

 C         

      9   S      23          3047.5248800    0.001834737132
      9   S      24           457.3695180    0.014037322813
      9   S      25           103.9486850    0.068842622264
      9   S      26            29.2101553    0.232184443216
      9   S      27             9.2866630    0.467941348435
      9   S      28             3.1639270    0.362311985337

     10   L      29             7.8682723   -0.119332419775    0.068999066591
     10   L      30             1.8812885   -0.160854151696    0.316423960957
     10   L      31             0.5442493    1.143456437840    0.744308290898

     11   L      32             0.1687145    1.000000000000    1.000000000000

     12   D      33             0.8000000    1.000000000000

 H         

     13   S      34            18.7311370    0.033494604338
     13   S      35             2.8253944    0.234726953484
     13   S      36             0.6401217    0.813757326146

     14   S      37             0.1612778    1.000000000000

 H         

     15   S      38            18.7311370    0.033494604338
     15   S      39             2.8253944    0.234726953484
     15   S      40             0.6401217    0.813757326146

     16   S      41             0.1612778    1.000000000000

 H         

     17   S      42            18.7311370    0.033494604338
     17   S      43             2.8253944    0.234726953484
     17   S      44             0.6401217    0.813757326146

     18   S      45             0.1612778    1.000000000000

 H         

     21   S      46            18.7311370    0.033494604338
     21   S      47             2.8253944    0.234726953484
     21   S      48             0.6401217    0.813757326146

     22   S      49             0.1612778    1.000000000000

 H         

     23   S      50            18.7311370    0.033494604338
     23   S      51             2.8253944    0.234726953484
     23   S      52             0.6401217    0.813757326146

     24   S      53             0.1612778    1.000000000000

 TOTAL NUMBER OF BASIS SET SHELLS             =   24
 NUMBER OF CARTESIAN GAUSSIAN BASIS FUNCTIONS =   57
 NUMBER OF ELECTRONS                          =   24
 CHARGE OF MOLECULE                           =    0
 SPIN MULTIPLICITY                            =    1
 NUMBER OF OCCUPIED ORBITALS (ALPHA)          =   12
 NUMBER OF OCCUPIED ORBITALS (BETA )          =   12
 TOTAL NUMBER OF ATOMS                        =    9
 THE NUCLEAR REPULSION ENERGY IS       70.8126004304

 SELECTED MURRAY-HANDY-LAMING RADIAL GRID

 LEGACY BECKE'S FUZZY CELL METHOD

 SELECTED ORIGINAL BECKE'S PARTITION FUNCTION

     LEBEDEV GRID-BASED DFT OPTIONS
     ------------------------------
     DFTTYP=B3LYP   
     NRAD  =      96     NLEB  =     590
     NRAD0 =      24     NLEB0 =     110
     SWOFF =    5.00E-03 (PURE SCF -> DFT)
     SWITCH=    3.00E-04 (COARSE -> TIGHT GRID)
     THRESH=    0.00E+00 GTHRE=    1.00E+00

 GRIMME'S EMPIRICAL DISPERSION CORRECTION= F

     $CONTRL OPTIONS
     ---------------
 SCFTYP=RHF          RUNTYP=OPTIMIZE     EXETYP=RUN     
 MPLEVL=       0     CITYP =NONE         CCTYP =NONE         VBTYP =NONE    
 DFTTYP=B3LYP        TDDFT =NONE    
 MULT  =       1     ICHARG=       0     NZVAR =       0     COORD =UNIQUE  
 PP    =NONE         RELWFN=NONE         LOCAL =NONE         NUMGRD=       F
 ISPHER=      -1     NOSYM =       0     MAXIT =     200     UNITS =ANGS    
 PLTORB=       F     MOLPLT=       F     AIMPAC=       F     FRIEND=        
 NPRINT=       7     IREST =       0     GEOM  =INPUT   
 NORMF =       0     NORMP =       0     ITOL  =      20     ICUT  =       9
 INTTYP=BEST         GRDTYP=BEST         QMTTOL= 1.0E-06

     $SYSTEM OPTIONS
     ---------------
  REPLICATED MEMORY=   250000000 WORDS (ON EVERY NODE).
 DISTRIBUTED MEMDDI=           0 MILLION WORDS IN AGGREGATE,
 MEMDDI DISTRIBUTED OVER   1 PROCESSORS IS           0 WORDS/PROCESSOR.
 TOTAL MEMORY REQUESTED ON EACH PROCESSOR=   250000000 WORDS.
 TIMLIM=        2879.00 MINUTES, OR       2.0 DAYS.
 PARALL= F  BALTYP=  DLB     KDIAG=    0  COREFL= F
 MXSEQ2=     300 MXSEQ3=     150  mem10=         0

          ----------------
          PROPERTIES INPUT
          ----------------

     MOMENTS            FIELD           POTENTIAL          DENSITY
 IEMOM =       1   IEFLD =       0   IEPOT =       0   IEDEN =       0
 WHERE =COMASS     WHERE =NUCLEI     WHERE =NUCLEI     WHERE =NUCLEI  
 OUTPUT=BOTH       OUTPUT=BOTH       OUTPUT=BOTH       OUTPUT=BOTH    
 IEMINT=       0   IEFINT=       0                     IEDINT=       0
                                                       MORB  =       0
          EXTRAPOLATION IN EFFECT
          DIIS IN EFFECT
 ORBITAL PRINTING OPTION: NPREO=     1    57     2     1

     -------------------------------
     INTEGRAL TRANSFORMATION OPTIONS
     -------------------------------
     NWORD  =            0
     CUTOFF = 1.0E-09     MPTRAN =       0
     DIRTRF =       T     AOINTS =DUP     

          ----------------------
          INTEGRAL INPUT OPTIONS
          ----------------------
 NOPK  =       1 NORDER=       0 SCHWRZ=       T

     ------------------------------------------
     THE POINT GROUP IS CS , NAXIS= 0, ORDER= 2
     ------------------------------------------

     DIMENSIONS OF THE SYMMETRY SUBSPACES ARE
 A'  =   43     A'' =   14

 ..... DONE SETTING UP THE RUN .....
 STEP CPU TIME =     0.02 TOTAL CPU TIME =          0.0 (      0.0 MIN)
 TOTAL WALL CLOCK TIME=          0.0 SECONDS, CPU UTILIZATION IS    50.00%


          -----------------------------
          STATIONARY POINT LOCATION RUN
          -----------------------------

 OBTAINING INITIAL HESSIAN, HESS=GUESS   
 CARTESIAN COORDINATE OPTIMIZATION USING BADGER'S RULE FORCE CONSTANT GUESS

          PARAMETERS CONTROLLING GEOMETRY SEARCH ARE
          METHOD =QA                  UPHESS =BFGS    
          NNEG   =         0          NFRZ   =         0
          NSTEP  =       999          IFOLOW =         1
          HESS   =GUESS               RESTAR =         F
          IHREP  =         0          HSSEND =         T
          NPRT   =         0          NPUN   =         0
          OPTTOL = 5.000E-04          RMIN   = 1.500E-03
          RMAX   = 1.000E-01          RLIM   = 7.000E-02
          DXMAX  = 3.000E-01          PURIFY =         F
          MOVIE  =         F          TRUPD  =         T
          TRMAX  = 5.000E-01          TRMIN  = 5.000E-02
          ITBMAT =         5          STPT   =         F
          STSTEP = 1.000E-02          PROJCT=          T

 BEGINNING GEOMETRY SEARCH POINT NSERCH=   0 ...

 COORDINATES OF SYMMETRY UNIQUE ATOMS (ANGS)
   ATOM   CHARGE       X              Y              Z
 ------------------------------------------------------------
 C           6.0   0.7100000000   1.0500000000   0.0000000000
 C           6.0  -0.3800000000   0.2700000000   0.0000000000
 C           6.0  -0.3300000000  -1.2200000000   0.0000000000
 H           1.0   1.7100000000   0.6300000000   0.0000000000
 H           1.0   0.6200000000   2.1300000000   0.0000000000
 H           1.0  -1.3600000000   0.7400000000   0.0000000000
 H           1.0   0.1800000000  -1.6000000000   0.8900000000
 H           1.0  -1.3500000000  -1.6200000000   0.0000000000
 COORDINATES OF ALL ATOMS ARE (ANGS)
   ATOM   CHARGE       X              Y              Z
 ------------------------------------------------------------
 C           6.0   0.7100000000   1.0500000000   0.0000000000
 C           6.0  -0.3800000000   0.2700000000   0.0000000000
 C           6.0  -0.3300000000  -1.2200000000   0.0000000000
 H           1.0   1.7100000000   0.6300000000   0.0000000000
 H           1.0   0.6200000000   2.1300000000   0.0000000000
 H           1.0  -1.3600000000   0.7400000000   0.0000000000
 H           1.0   0.1800000000  -1.6000000000  -0.8900000000
 H           1.0   0.1800000000  -1.6000000000   0.8900000000
 H           1.0  -1.3500000000  -1.6200000000   0.0000000000

          ********************
          1 ELECTRON INTEGRALS
          ********************
 ...... END OF ONE-ELECTRON INTEGRALS ......
 STEP CPU TIME =     0.01 TOTAL CPU TIME =          0.0 (      0.0 MIN)
 TOTAL WALL CLOCK TIME=          0.1 SECONDS, CPU UTILIZATION IS    50.00%

          -------------
          GUESS OPTIONS
          -------------
          GUESS =HUCKEL            NORB  =       0          NORDER=       0
          MIX   =       F          PRTMO =       F          PUNMO =       F
          TOLZ  = 1.0E-08          TOLE  = 1.0E-05
          SYMDEN=       F          PURIFY=       F

 INITIAL GUESS ORBITALS GENERATED BY HUCKEL   ROUTINE.
 HUCKEL GUESS REQUIRES     32010 WORDS.

 SYMMETRIES FOR INITIAL GUESS ORBITALS FOLLOW.   BOTH SET(S).
    12 ORBITALS ARE OCCUPIED (    3 CORE ORBITALS).
     4=A'       5=A'       6=A'       7=A'       8=A''      9=A'      10=A'  
    11=A'      12=A''     13=A''     14=A'      15=A'      16=A''     17=A'  
    18=A'      19=A'      20=A'      21=A'      22=A'  
 ...... END OF INITIAL ORBITAL SELECTION ......
 STEP CPU TIME =     0.02 TOTAL CPU TIME =          0.0 (      0.0 MIN)
 TOTAL WALL CLOCK TIME=          0.1 SECONDS, CPU UTILIZATION IS    62.50%

                    ----------------------
                    AO INTEGRAL TECHNOLOGY
                    ----------------------
     S,P,L SHELL ROTATED AXIS INTEGRALS, REPROGRAMMED BY
        KAZUYA ISHIMURA (IMS) AND JOSE SIERRA (SYNSTAR).
     S,P,D,L SHELL ROTATED AXIS INTEGRALS PROGRAMMED BY
        KAZUYA ISHIMURA (INSTITUTE FOR MOLECULAR SCIENCE).
     S,P,D,F,G SHELL TO TOTAL QUARTET ANGULAR MOMENTUM SUM 5,
        ERIC PROGRAM BY GRAHAM FLETCHER (ELORET AND NASA ADVANCED
        SUPERCOMPUTING DIVISION, AMES RESEARCH CENTER).
     S,P,D,F,G,L SHELL GENERAL RYS QUADRATURE PROGRAMMED BY
        MICHEL DUPUIS (PACIFIC NORTHWEST NATIONAL LABORATORY).

          --------------------
          2 ELECTRON INTEGRALS
          --------------------

 DIRECT SCF METHOD SKIPS INTEGRAL STORAGE ON DISK.
 DIRECT TRANSFORMATION SKIPS AO INTEGRAL STORAGE ON DISK.
  ...... END OF TWO-ELECTRON INTEGRALS .....
 STEP CPU TIME =     0.01 TOTAL CPU TIME =          0.1 (      0.0 MIN)
 TOTAL WALL CLOCK TIME=          0.1 SECONDS, CPU UTILIZATION IS    60.00%

          --------------------------
             R-B3LYP SCF CALCULATION
          --------------------------

     NUCLEAR ENERGY =        70.8126004304
     MAXIT =  200     NPUNCH=    2
     EXTRAP=T  DAMP=F  SHIFT=F  RSTRCT=F  DIIS=T  DEM=F  SOSCF=F
         DENSITY MATRIX CONVERGENCE THRESHOLD=  2.00E-05
     COARSE -> FINE DFT GRID SWITCH THRESHOLD=  3.00E-04 (SWITCH IN $DFT)
                   HF -> DFT SWITCH THRESHOLD=  5.00E-03 (SWOFF IN $DFT)
     MEMORY REQUIRED FOR RHF ITERS=    668725 WORDS.

 DIRECT SCF CALCULATION, SCHWRZ=T   FDIFF=T,  DIRTHR=  0.00E+00 NITDIR=10
 SCHWARZ INEQUALITY OVERHEAD:      1653 INTEGRALS, T=        0.00

 DFT CODE IS SWITCHING FROM THE FINE GRID NRAD= 96,  NLEB=  590
                      TO THE COARSE GRID NRAD0= 24, NLEB0=  110

     EXCHANGE FUNCTIONAL   =B88&HFX   
     CORRELATION FUNCTIONAL=LYP88&VWN5
     DFT THRESHOLD         =.785E-08
     GRID CHANGE THRESHOLD =.300E-03
 FOR AN EULER-MACLAURIN QUADRATURE USING  96 RADIAL POINTS:
 SMALLEST GAUSSIAN PRIMITIVE EXPONENT=        0.1612777588 OF TYPE -S-
 ON ATOM NUMBER   4 HAS RADIAL NORMALIZATION=  1.000000
  LARGEST GAUSSIAN PRIMITIVE EXPONENT=     3047.5248800000 OF TYPE -S-
 ON ATOM NUMBER   1 HAS RADIAL NORMALIZATION=  1.000000
 DFT IS SWITCHED OFF, PERFORMING PURE SCF UNTIL SWOFF THRESHOLD IS REACHED.

                                                                                   NONZERO     BLOCKS
 ITER EX DEM     TOTAL ENERGY        E CHANGE  DENSITY CHANGE    DIIS ERROR      INTEGRALS    SKIPPED
          * * *   INITIATING DIIS PROCEDURE   * * *
   1  0  0     -116.7935211882  -116.7935211882   0.130347354   0.359484979         719826       1243
   2  1  0     -117.0488177935    -0.2552966053   0.083237016   0.074183734         719379       1450
   3  2  0     -117.0632668583    -0.0144490649   0.021287346   0.025953194         718537       1726
   4  3  0     -117.0664906045    -0.0032237461   0.007283642   0.005770267         716638       2076
   5  4  0     -117.0666852945    -0.0001946900   0.003274382   0.001987561         714272       2346
 CONVERGED TO SWOFF, SO DFT CALCULATION IS NOW SWITCHED ON.
          * * *   INITIATING DIIS PROCEDURE   * * *
   6  5  0     -117.8016285531    -0.7349432586   0.053870598   0.090681611         719824       1240
   7  6  0     -117.8127191822    -0.0110906291   0.030344229   0.026524646         718793       1666
   8  7  0     -117.8130594399    -0.0003402577   0.015964898   0.025110598         717190       1880
   9  8  0     -117.8147650158    -0.0017055759   0.004357791   0.003741548         715829       2102
  10  9  0     -117.8148063798    -0.0000413640   0.000815683   0.000616222         709219       3005
  11 10  0     -117.8148082301    -0.0000018503   0.000134939   0.000086871         704095       3602
 DFT CODE IS SWITCHING BACK TO THE FINE GRID
          * * *   INITIATING DIIS PROCEDURE   * * *
  12 11  0     -117.8160896409    -0.0012814108   0.000945701   0.000693073         719857       1224
  13 12  0     -117.8160921212    -0.0000024803   0.000097713   0.000172784         710010       2948
  14 13  0     -117.8160921532    -0.0000000320   0.000101665   0.000091402         698475       4264
  15 14  0     -117.8160921674    -0.0000000142   0.000052907   0.000037156         688413       5020
  16 15  0     -117.8160921732    -0.0000000058   0.000012114   0.000009735         676397       6192
  17 16  0     -117.8160921737    -0.0000000005   0.000001632   0.000002086         665856       7074

          -----------------
          DENSITY CONVERGED
          -----------------
     TIME TO FORM FOCK OPERATORS=       6.2 SECONDS (       0.4 SEC/ITER)
     FOCK TIME ON FIRST ITERATION=       0.1, LAST ITERATION=       0.9
     TIME TO SOLVE SCF EQUATIONS=       0.1 SECONDS (       0.0 SEC/ITER)

 FINAL R-B3LYP ENERGY IS     -117.8160921737 AFTER  17 ITERATIONS
 DFT EXCHANGE + CORRELATION ENERGY =       -14.8726619245
 TOTAL ELECTRON NUMBER             =        24.0000102440

          ------------
          EIGENVECTORS
          ------------

                      1          2          3          4          5
                  -10.1810   -10.1736   -10.1672    -0.7767    -0.6754
                     A'         A'         A'         A'         A'  
    1  C  1  S    0.029838  -0.001558   0.992258  -0.112742   0.137958
    2  C  1  S    0.000930  -0.000239   0.049299   0.215033  -0.268741
    3  C  1  X    0.000292  -0.000001   0.000022  -0.065675   0.034497
    4  C  1  Y    0.000235   0.000099  -0.000001  -0.057001  -0.000868
    5  C  1  Z    0.000000   0.000000   0.000000   0.000000   0.000000
    6  C  1  S    0.004532   0.000466  -0.013383   0.164828  -0.222423
    7  C  1  X   -0.001151  -0.000538   0.000907  -0.006003  -0.006779
    8  C  1  Y   -0.001713  -0.000393   0.000667  -0.009500  -0.007934
    9  C  1  Z    0.000000   0.000000   0.000000   0.000000   0.000000
   10  C  1 XX   -0.000586   0.000113  -0.009299   0.004219  -0.003573
   11  C  1 YY   -0.000485   0.000047  -0.009378   0.002777  -0.001983
   12  C  1 ZZ   -0.000421  -0.000085  -0.009779  -0.012090   0.013717
   13  C  1 XY   -0.000045   0.000031   0.000124   0.004703   0.001524
   14  C  1 XZ    0.000000   0.000000   0.000000   0.000000   0.000000
   15  C  1 YZ    0.000000   0.000000   0.000000   0.000000   0.000000
   16  C  2  S    0.992152  -0.018677  -0.030341  -0.153706   0.034740
   17  C  2  S    0.049232  -0.001119  -0.002016   0.298617  -0.069621
   18  C  2  X    0.000011  -0.000031  -0.000347   0.051456  -0.088060
   19  C  2  Y   -0.000175   0.000203  -0.000216  -0.014356  -0.173440
   20  C  2  Z    0.000000   0.000000   0.000000   0.000000   0.000000
   21  C  2  S   -0.014600   0.004204   0.004940   0.196910  -0.053460
   22  C  2  X   -0.001273  -0.000338   0.001732  -0.010731  -0.013218
   23  C  2  Y    0.000830  -0.002670   0.001300  -0.002087  -0.041526
   24  C  2  Z    0.000000   0.000000   0.000000   0.000000   0.000000
   25  C  2 XX   -0.009151   0.000053   0.000024   0.001684  -0.007807
   26  C  2 YY   -0.009214  -0.000271   0.000010   0.004326   0.011610
   27  C  2 ZZ   -0.009561   0.000036   0.000161  -0.015750   0.003069
   28  C  2 XY    0.000152  -0.000039  -0.000044   0.001680  -0.006468
   29  C  2 XZ    0.000000   0.000000   0.000000   0.000000   0.000000
   30  C  2 YZ    0.000000   0.000000   0.000000   0.000000   0.000000
   31  C  3  S    0.018491   0.992719   0.000971  -0.119381  -0.146872
   32  C  3  S    0.000765   0.050112  -0.000056   0.224997   0.287508
   33  C  3  X    0.000106  -0.000003  -0.000036   0.002486  -0.015786
   34  C  3  Y   -0.000296   0.000093  -0.000039   0.062340  -0.032886
   35  C  3  Z    0.000000   0.000000   0.000000   0.000000   0.000000
   36  C  3  S    0.003295  -0.017418  -0.000150   0.195039   0.264325
   37  C  3  X   -0.000224   0.000149   0.000037   0.007964  -0.008982
   38  C  3  Y    0.001940  -0.001181   0.000170   0.011838  -0.019708
   39  C  3  Z    0.000000   0.000000   0.000000   0.000000   0.000000
   40  C  3 XX   -0.000296  -0.009169   0.000006  -0.002040   0.003158
   41  C  3 YY   -0.000659  -0.009216   0.000087   0.005982  -0.007627
   42  C  3 ZZ   -0.000205  -0.009148  -0.000038  -0.002009   0.002627
   43  C  3 XY    0.000086   0.000002   0.000009   0.000454  -0.001459
   44  C  3 XZ    0.000000   0.000000   0.000000   0.000000   0.000000
   45  C  3 YZ    0.000000   0.000000   0.000000   0.000000   0.000000
   46  H  4  S   -0.000138  -0.000077  -0.000338   0.056868  -0.085254
   47  H  4  S   -0.000337   0.000246   0.002193   0.009941  -0.021373
   48  H  5  S   -0.000037  -0.000014  -0.000338   0.052555  -0.099084
   49  H  5  S    0.000243   0.000340   0.002183   0.009816  -0.030741
   50  H  6  S   -0.000350  -0.000122  -0.000053   0.076903  -0.022159
   51  H  6  S    0.001886  -0.000077  -0.000058   0.010227  -0.004187
   52  H  7  S   -0.000162  -0.000043  -0.000025   0.064952   0.103485
   53  H  7  S    0.000420   0.002691   0.000066   0.009128   0.029978
   54  H  8  S   -0.000162  -0.000043  -0.000025   0.064952   0.103485
   55  H  8  S    0.000420   0.002691   0.000066   0.009128   0.029978
   56  H  9  S   -0.000099  -0.000021   0.000013   0.063481   0.111608
   57  H  9  S   -0.000101   0.002711   0.000210   0.013736   0.032166

                      6          7          8          9         10
                   -0.5459    -0.4569    -0.4140    -0.4093    -0.3593
                     A'         A'         A'         A''        A'  
    1  C  1  S    0.090989  -0.016217   0.000488   0.000000   0.027562
    2  C  1  S   -0.183209   0.034166  -0.002320   0.000000  -0.058142
    3  C  1  X   -0.183951   0.000628   0.339477   0.000000   0.140845
    4  C  1  Y   -0.061436   0.321995  -0.040732   0.000000   0.245615
    5  C  1  Z    0.000000   0.000000   0.000000   0.065545   0.000000
    6  C  1  S   -0.173831   0.036543   0.028133   0.000000  -0.088751
    7  C  1  X   -0.065012  -0.004572   0.123617   0.000000   0.061453
    8  C  1  Y   -0.025370   0.124154  -0.021093   0.000000   0.089843
    9  C  1  Z    0.000000   0.000000   0.000000   0.037328   0.000000
   10  C  1 XX    0.002447  -0.003933   0.009713   0.000000  -0.003895
   11  C  1 YY   -0.006826   0.008454  -0.001785   0.000000   0.013791
   12  C  1 ZZ    0.008210  -0.001289  -0.000384   0.000000   0.001596
   13  C  1 XY    0.011927  -0.006650  -0.011196   0.000000  -0.004822
   14  C  1 XZ    0.000000   0.000000   0.000000  -0.003526   0.000000
   15  C  1 YZ    0.000000   0.000000   0.000000  -0.004014   0.000000
   16  C  2  S   -0.121737   0.033351  -0.001182   0.000000  -0.002217
   17  C  2  S    0.250313  -0.073650   0.004677   0.000000   0.003823
   18  C  2  X   -0.160953  -0.251711  -0.160616   0.000000  -0.208364
   19  C  2  Y    0.037407   0.121521  -0.247520   0.000000  -0.181564
   20  C  2  Z    0.000000   0.000000   0.000000   0.148344   0.000000
   21  C  2  S    0.228315  -0.048468   0.012962   0.000000   0.032718
   22  C  2  X   -0.069250  -0.065491  -0.055695   0.000000  -0.061133
   23  C  2  Y    0.005870   0.037210  -0.090744   0.000000  -0.037754
   24  C  2  Z    0.000000   0.000000   0.000000   0.071956   0.000000
   25  C  2 XX    0.003368   0.003703   0.004396   0.000000  -0.003924
   26  C  2 YY   -0.006675   0.006869  -0.000888   0.000000   0.007191
   27  C  2 ZZ   -0.010414   0.001576  -0.000845   0.000000   0.000095
   28  C  2 XY   -0.009552   0.000391  -0.002062   0.000000  -0.017771
   29  C  2 XZ    0.000000   0.000000   0.000000   0.003168   0.000000
   30  C  2 YZ    0.000000   0.000000   0.000000  -0.009594   0.000000
   31  C  3  S    0.052216  -0.012580   0.006772   0.000000  -0.008629
   32  C  3  S   -0.103830   0.026029  -0.009353   0.000000   0.020784
   33  C  3  X   -0.061382  -0.188092  -0.217768   0.000000   0.319611
   34  C  3  Y    0.147956  -0.153851   0.206061   0.000000   0.177701
   35  C  3  Z    0.000000   0.000000   0.000000   0.431171   0.000000
   36  C  3  S   -0.118686   0.023590  -0.032478   0.000000   0.041668
   37  C  3  X   -0.023148  -0.095112  -0.097446   0.000000   0.143635
   38  C  3  Y    0.051587  -0.067521   0.092580   0.000000   0.091358
   39  C  3  Z    0.000000   0.000000   0.000000   0.200210   0.000000
   40  C  3 XX   -0.003664   0.011963   0.003420   0.000000  -0.017742
   41  C  3 YY    0.013213  -0.008738   0.007284   0.000000   0.004214
   42  C  3 ZZ   -0.007737  -0.001833  -0.014422   0.000000   0.009361
   43  C  3 XY   -0.002453  -0.000795   0.003088   0.000000  -0.018716
   44  C  3 XZ    0.000000   0.000000   0.000000   0.019059   0.000000
   45  C  3 YZ    0.000000   0.000000   0.000000  -0.009858   0.000000
   46  H  4  S   -0.151217  -0.049680   0.201494   0.000000  -0.002717
   47  H  4  S   -0.082022  -0.033558   0.158002   0.000000   0.010065
   48  H  5  S   -0.103513   0.196803  -0.038850   0.000000   0.133963
   49  H  5  S   -0.051519   0.138970  -0.031362   0.000000   0.139573
   50  H  6  S    0.183377   0.123393   0.029419   0.000000   0.081584
   51  H  6  S    0.091788   0.108610   0.028831   0.000000   0.075319
   52  H  7  S   -0.083518  -0.006826  -0.113399  -0.220554   0.072427
   53  H  7  S   -0.043633  -0.004208  -0.084317  -0.177410   0.066638
   54  H  8  S   -0.083518  -0.006826  -0.113399   0.220554   0.072427
   55  H  8  S   -0.043633  -0.004208  -0.084317   0.177410   0.066638
   56  H  9  S   -0.041337   0.145275   0.072283   0.000000  -0.246199
   57  H  9  S   -0.018576   0.099470   0.064599   0.000000  -0.233928

                     11         12         13         14         15
                   -0.3397    -0.2422     0.0233     0.1130     0.1351
                     A'         A''        A''        A'         A'  
    1  C  1  S   -0.007924   0.000000   0.000000  -0.049164   0.000203
    2  C  1  S    0.017289   0.000000   0.000000   0.097160   0.022666
    3  C  1  X   -0.178763   0.000000   0.000000   0.035713   0.074034
    4  C  1  Y    0.183782   0.000000   0.000000   0.112174  -0.104856
    5  C  1  Z    0.000000   0.403775   0.389520   0.000000   0.000000
    6  C  1  S    0.019716   0.000000   0.000000   0.543901  -0.099184
    7  C  1  X   -0.049561   0.000000   0.000000   0.306007   0.227640
    8  C  1  Y    0.063967   0.000000   0.000000   0.389571  -0.213036
    9  C  1  Z    0.000000   0.299398   0.592571   0.000000   0.000000
   10  C  1 XX   -0.022556   0.000000   0.000000   0.011611  -0.000588
   11  C  1 YY    0.020815   0.000000   0.000000  -0.018031   0.009976
   12  C  1 ZZ   -0.000499   0.000000   0.000000  -0.000931  -0.002302
   13  C  1 XY    0.009789   0.000000   0.000000   0.000207  -0.002158
   14  C  1 XZ    0.000000  -0.012312   0.020008   0.000000   0.000000
   15  C  1 YZ    0.000000  -0.008124   0.012714   0.000000   0.000000
   16  C  2  S   -0.007205   0.000000   0.000000  -0.052647   0.042178
   17  C  2  S    0.022968   0.000000   0.000000   0.085087  -0.017341
   18  C  2  X    0.207877   0.000000   0.000000  -0.183117   0.123461
   19  C  2  Y   -0.248552   0.000000   0.000000   0.074493  -0.028071
   20  C  2  Z    0.000000   0.373667  -0.420938   0.000000   0.000000
   21  C  2  S    0.001969   0.000000   0.000000   0.956564  -0.708524
   22  C  2  X    0.079367   0.000000   0.000000  -0.303178   0.301377
   23  C  2  Y   -0.063055   0.000000   0.000000   0.316170   0.152541
   24  C  2  Z    0.000000   0.271060  -0.564945   0.000000   0.000000
   25  C  2 XX   -0.022601   0.000000   0.000000  -0.008124   0.015394
   26  C  2 YY    0.015645   0.000000   0.000000   0.007195   0.006524
   27  C  2 ZZ   -0.000069   0.000000   0.000000  -0.004639  -0.002702
   28  C  2 XY    0.016326   0.000000   0.000000   0.013007  -0.013601
   29  C  2 XZ    0.000000   0.012227   0.021931   0.000000   0.000000
   30  C  2 YZ    0.000000   0.013927   0.012122   0.000000   0.000000
   31  C  3  S   -0.022487   0.000000   0.000000  -0.078460  -0.118634
   32  C  3  S    0.047672   0.000000   0.000000   0.096298   0.128531
   33  C  3  X   -0.119322   0.000000   0.000000  -0.124671   0.162451
   34  C  3  Y    0.264406   0.000000   0.000000  -0.115599  -0.130128
   35  C  3  Z    0.000000  -0.126003  -0.035257   0.000000   0.000000
   36  C  3  S    0.114706   0.000000   0.000000   1.287641   2.054695
   37  C  3  X   -0.068726   0.000000   0.000000  -0.381226   0.449635
   38  C  3  Y    0.140156   0.000000   0.000000  -0.372301  -0.276675
   39  C  3  Z    0.000000  -0.074365  -0.191253   0.000000   0.000000
   40  C  3 XX   -0.003504   0.000000   0.000000  -0.017690  -0.003920
   41  C  3 YY    0.008293   0.000000   0.000000  -0.001102  -0.006358
   42  C  3 ZZ   -0.011226   0.000000   0.000000  -0.000279  -0.018393
   43  C  3 XY    0.008627   0.000000   0.000000  -0.013702   0.009114
   44  C  3 XZ    0.000000  -0.007482   0.012067   0.000000   0.000000
   45  C  3 YZ    0.000000   0.019720  -0.026544   0.000000   0.000000
   46  H  4  S   -0.174708   0.000000   0.000000   0.028835   0.007214
   47  H  4  S   -0.198815   0.000000   0.000000  -0.284823  -0.408881
   48  H  5  S    0.160471   0.000000   0.000000  -0.069195   0.010328
   49  H  5  S    0.161580   0.000000   0.000000  -0.840055   0.350294
   50  H  6  S   -0.213444   0.000000   0.000000  -0.041739   0.087994
   51  H  6  S   -0.223117   0.000000   0.000000  -1.017705   0.787850
   52  H  7  S   -0.085232   0.097839  -0.086187   0.018515  -0.048714
   53  H  7  S   -0.094911   0.105755  -0.363379  -0.344698  -1.237453
   54  H  8  S   -0.085232  -0.097839   0.086187   0.018515  -0.048714
   55  H  8  S   -0.094911  -0.105755   0.363379  -0.344698  -1.237453
   56  H  9  S    0.033357   0.000000   0.000000  -0.081145   0.033394
   57  H  9  S    0.014285   0.000000   0.000000  -1.199659  -0.235127

                     16         17         18         19         20
                    0.1558     0.1902     0.1960     0.2087     0.2933
                     A'         A'         A''        A'         A'  
    1  C  1  S   -0.116430   0.032405   0.000000   0.043080   0.031706
    2  C  1  S    0.163560  -0.036277   0.000000  -0.061111   0.001336
    3  C  1  X    0.236612   0.132655   0.000000   0.091919  -0.117476
    4  C  1  Y    0.016989  -0.316195   0.000000  -0.052463   0.134046
    5  C  1  Z    0.000000   0.000000   0.134360   0.000000   0.000000
    6  C  1  S    1.899712  -0.776159   0.000000  -0.438637  -0.935964
    7  C  1  X    0.576594   0.612362   0.000000   0.498912  -0.270913
    8  C  1  Y    0.045693  -0.868661   0.000000  -0.252164   1.596475
    9  C  1  Z    0.000000   0.000000   0.226508   0.000000   0.000000
   10  C  1 XX   -0.015403  -0.008298   0.000000   0.001546  -0.016300
   11  C  1 YY    0.001113   0.003812   0.000000   0.007017   0.010630
   12  C  1 ZZ   -0.007128   0.005467   0.000000   0.002233   0.007313
   13  C  1 XY    0.007164   0.003447   0.000000   0.011765   0.018517
   14  C  1 XZ    0.000000   0.000000   0.011045   0.000000   0.000000
   15  C  1 YZ    0.000000   0.000000   0.008681   0.000000   0.000000
   16  C  2  S    0.016713  -0.031778   0.000000  -0.115792  -0.071132
   17  C  2  S   -0.045217   0.030359   0.000000   0.176551   0.066525
   18  C  2  X    0.028438   0.036801   0.000000  -0.145986   0.229677
   19  C  2  Y   -0.115215  -0.105415   0.000000  -0.033275  -0.311811
   20  C  2  Z    0.000000   0.000000  -0.140775   0.000000   0.000000
   21  C  2  S   -0.071377   0.591939   0.000000   2.116000   2.028548
   22  C  2  X    0.014171   0.180200   0.000000  -0.665505   1.439198
   23  C  2  Y   -0.499175   0.043842   0.000000  -0.092769  -1.742577
   24  C  2  Z    0.000000   0.000000  -0.475067   0.000000   0.000000
   25  C  2 XX    0.012405   0.014977   0.000000   0.011677  -0.005494
   26  C  2 YY   -0.014966  -0.023952   0.000000  -0.013528   0.009896
   27  C  2 ZZ    0.003146   0.001539   0.000000  -0.007744  -0.004690
   28  C  2 XY    0.001329   0.005560   0.000000  -0.016121   0.011384
   29  C  2 XZ    0.000000   0.000000   0.001019   0.000000   0.000000
   30  C  2 YZ    0.000000   0.000000  -0.012664   0.000000   0.000000
   31  C  3  S    0.051702   0.020205   0.000000   0.056652   0.055885
   32  C  3  S   -0.049248  -0.052209   0.000000  -0.065920   0.026373
   33  C  3  X    0.084450  -0.243094   0.000000   0.250686  -0.018654
   34  C  3  Y   -0.002403  -0.153942   0.000000  -0.123595  -0.117820
   35  C  3  Z    0.000000   0.000000   0.435110   0.000000   0.000000
   36  C  3  S   -0.977225  -0.032088   0.000000  -0.846471  -1.704439
   37  C  3  X    0.079041  -0.872324   0.000000   0.975714  -0.365231
   38  C  3  Y   -0.145020  -0.417538   0.000000  -0.689628  -1.819338
   39  C  3  Z    0.000000   0.000000   1.415713   0.000000   0.000000
   40  C  3 XX   -0.000662  -0.011879   0.000000  -0.000166  -0.017343
   41  C  3 YY    0.005011   0.014213   0.000000   0.022813   0.036571
   42  C  3 ZZ    0.006567   0.001006   0.000000  -0.011226  -0.007008
   43  C  3 XY   -0.003986   0.001052   0.000000  -0.000043   0.001056
   44  C  3 XZ    0.000000   0.000000  -0.011433   0.000000   0.000000
   45  C  3 YZ    0.000000   0.000000  -0.005446   0.000000   0.000000
   46  H  4  S   -0.101293  -0.021191   0.000000  -0.016913  -0.047014
   47  H  4  S   -1.676339  -0.816477   0.000000  -0.348727   1.172242
   48  H  5  S   -0.019213   0.046217   0.000000   0.041838   0.019896
   49  H  5  S   -0.786605   1.578324   0.000000   0.645717  -1.077098
   50  H  6  S    0.043729   0.011742   0.000000  -0.001517  -0.017737
   51  H  6  S    0.470558   0.050639   0.000000  -1.456969   1.397056
   52  H  7  S    0.026314   0.015302   0.057715  -0.045653  -0.056977
   53  H  7  S    0.229552   0.413431   1.526371  -0.491359  -0.027256
   54  H  8  S    0.026314   0.015302  -0.057715  -0.045653  -0.056977
   55  H  8  S    0.229552   0.413431  -1.526371  -0.491359  -0.027256
   56  H  9  S   -0.023471  -0.067327   0.000000   0.037855  -0.087910
   57  H  9  S    0.416909  -1.192437   0.000000   1.203907  -0.415222

                     21         22         23         24         25
                    0.3485     0.5058     0.5326     0.5549     0.5918
                     A'         A'         A'         A''        A'  
    1  C  1  S   -0.074603  -0.002584   0.018705   0.000000  -0.008492
    2  C  1  S    0.016894  -0.220449  -0.166776   0.000000   0.325957
    3  C  1  X   -0.123819   0.449733  -0.096349   0.000000  -0.320791
    4  C  1  Y   -0.005487   0.311576   0.300339   0.000000  -0.098019
    5  C  1  Z    0.000000   0.000000   0.000000  -0.639355   0.000000
    6  C  1  S    3.149283  -0.532686   0.224850   0.000000   0.340992
    7  C  1  X   -2.481130  -0.214044   0.584413   0.000000   0.418470
    8  C  1  Y   -1.514442  -0.352676  -0.219806   0.000000  -0.258431
    9  C  1  Z    0.000000   0.000000   0.000000   0.627932   0.000000
   10  C  1 XX   -0.020020  -0.030301  -0.064409   0.000000   0.016761
   11  C  1 YY    0.029647  -0.004575   0.062948   0.000000   0.041555
   12  C  1 ZZ   -0.011678  -0.004607  -0.007926   0.000000  -0.011558
   13  C  1 XY   -0.023532  -0.034858   0.058808   0.000000   0.010750
   14  C  1 XZ    0.000000   0.000000   0.000000   0.045046   0.000000
   15  C  1 YZ    0.000000   0.000000   0.000000   0.023229   0.000000
   16  C  2  S    0.050924  -0.022147  -0.034499   0.000000   0.071654
   17  C  2  S    0.013426  -0.060214  -0.000642   0.000000   0.272634
   18  C  2  X   -0.207940  -0.212096   0.054127   0.000000   0.048626
   19  C  2  Y   -0.240318  -0.335879   0.160697   0.000000   0.282906
   20  C  2  Z    0.000000   0.000000   0.000000  -0.641690   0.000000
   21  C  2  S   -2.629213   0.172021  -0.026172   0.000000  -0.348855
   22  C  2  X   -2.298286   0.774540  -0.008155   0.000000  -0.632875
   23  C  2  Y   -2.077954   1.126680  -0.038666   0.000000  -0.572650
   24  C  2  Z    0.000000   0.000000   0.000000   0.348147   0.000000
   25  C  2 XX    0.012573  -0.039912   0.031458   0.000000   0.086904
   26  C  2 YY   -0.011127   0.022670  -0.107462   0.000000   0.126130
   27  C  2 ZZ    0.007397   0.008671   0.024306   0.000000  -0.072577
   28  C  2 XY    0.009600  -0.067005  -0.032705   0.000000   0.001774
   29  C  2 XZ    0.000000   0.000000   0.000000  -0.043820   0.000000
   30  C  2 YZ    0.000000   0.000000   0.000000  -0.029790   0.000000
   31  C  3  S    0.012886   0.008144   0.007197   0.000000  -0.020690
   32  C  3  S   -0.030420  -0.038451  -0.176502   0.000000   0.213899
   33  C  3  X   -0.091444  -0.288169  -0.275545   0.000000  -0.436092
   34  C  3  Y   -0.153803   0.196583  -0.633103   0.000000   0.627934
   35  C  3  Z    0.000000   0.000000   0.000000  -0.314374   0.000000
   36  C  3  S   -0.503470   0.581907   0.166680   0.000000  -0.293215
   37  C  3  X    0.749330   0.236519   0.452855   0.000000   1.020961
   38  C  3  Y   -0.772546  -0.145877   0.862912   0.000000  -0.773179
   39  C  3  Z    0.000000   0.000000   0.000000   0.762262   0.000000
   40  C  3 XX    0.009521   0.011964   0.043494   0.000000   0.061693
   41  C  3 YY    0.013394   0.057586  -0.034333   0.000000  -0.020584
   42  C  3 ZZ   -0.021794  -0.054560  -0.030262   0.000000  -0.037670
   43  C  3 XY   -0.021572   0.060755   0.048067   0.000000   0.007343
   44  C  3 XZ    0.000000   0.000000   0.000000  -0.052770   0.000000
   45  C  3 YZ    0.000000   0.000000   0.000000   0.016955   0.000000
   46  H  4  S    0.036061   0.033446  -0.353763   0.000000  -0.088223
   47  H  4  S    0.651235  -0.120514  -0.143586   0.000000  -0.280713
   48  H  5  S    0.144008   0.005671   0.228262   0.000000   0.112975
   49  H  5  S    0.237735   0.037973  -0.203029   0.000000   0.174498
   50  H  6  S   -0.021431   0.074920   0.179082   0.000000   0.383772
   51  H  6  S   -0.402161   0.009335  -0.101130   0.000000  -0.177686
   52  H  7  S   -0.050436  -0.200751  -0.054181   0.244415  -0.116640
   53  H  7  S   -0.354924   0.070524   0.030818   0.214180  -0.183948
   54  H  8  S   -0.050436  -0.200751  -0.054181  -0.244415  -0.116640
   55  H  8  S   -0.354924   0.070524   0.030818  -0.214180  -0.183948
   56  H  9  S   -0.032893   0.243653   0.298384   0.000000   0.154743
   57  H  9  S    0.017773  -0.131807  -0.035547   0.000000   0.194987

                     26         27         28         29         30
                    0.6203     0.6826     0.6832     0.7595     0.7846
                     A''        A'         A''        A'         A'  
    1  C  1  S    0.000000  -0.087072   0.000000  -0.023099  -0.019191
    2  C  1  S    0.000000  -0.475132   0.000000   0.007701   0.382211
    3  C  1  X    0.000000  -0.340563   0.000000  -0.167959  -0.219535
    4  C  1  Y    0.000000  -0.261510   0.000000   0.081846  -0.349504
    5  C  1  Z    0.744619   0.000000   0.420901   0.000000   0.000000
    6  C  1  S    0.000000   1.536612   0.000000  -1.204154  -1.065557
    7  C  1  X    0.000000   0.578586   0.000000   0.236421   0.426648
    8  C  1  Y    0.000000   0.367502   0.000000   0.035289   0.627126
    9  C  1  Z   -0.787691   0.000000  -0.905351   0.000000   0.000000
   10  C  1 XX    0.000000  -0.138937   0.000000  -0.091583  -0.063930
   11  C  1 YY    0.000000  -0.150855   0.000000   0.012568   0.062838
   12  C  1 ZZ    0.000000   0.095793   0.000000   0.036005   0.018325
   13  C  1 XY    0.000000  -0.007010   0.000000  -0.060370  -0.053080
   14  C  1 XZ    0.006733   0.000000  -0.002450   0.000000   0.000000
   15  C  1 YZ   -0.015575   0.000000   0.024825   0.000000   0.000000
   16  C  2  S    0.000000   0.038698   0.000000   0.027558   0.034246
   17  C  2  S    0.000000  -0.504423   0.000000  -0.276560   0.640754
   18  C  2  X    0.000000  -0.318100   0.000000  -0.594464  -0.217626
   19  C  2  Y    0.000000  -0.215999   0.000000   0.189593  -0.772288
   20  C  2  Z   -0.157328   0.000000  -0.856853   0.000000   0.000000
   21  C  2  S    0.000000   0.648368   0.000000   0.624753  -1.376575
   22  C  2  X    0.000000  -0.187650   0.000000   2.316607   0.756051
   23  C  2  Y    0.000000   0.039548   0.000000  -0.436940   1.767153
   24  C  2  Z   -0.032824   0.000000   1.633182   0.000000   0.000000
   25  C  2 XX    0.000000   0.001196   0.000000   0.057147   0.176320
   26  C  2 YY    0.000000  -0.008561   0.000000   0.008835   0.007450
   27  C  2 ZZ    0.000000  -0.022471   0.000000  -0.046828  -0.037084
   28  C  2 XY    0.000000   0.079668   0.000000  -0.049727   0.032309
   29  C  2 XZ    0.025073   0.000000  -0.008095   0.000000   0.000000
   30  C  2 YZ    0.009392   0.000000   0.046271   0.000000   0.000000
   31  C  3  S    0.000000  -0.009197   0.000000  -0.020723   0.054111
   32  C  3  S    0.000000   0.049356   0.000000   0.095200  -0.052377
   33  C  3  X    0.000000  -0.122355   0.000000   0.643222  -0.022118
   34  C  3  Y    0.000000   0.047914   0.000000   0.184077  -0.271517
   35  C  3  Z   -0.593048   0.000000   0.376871   0.000000   0.000000
   36  C  3  S    0.000000  -0.056159   0.000000  -0.287488   0.632152
   37  C  3  X    0.000000   0.498821   0.000000  -2.089868  -0.163071
   38  C  3  Y    0.000000  -0.219699   0.000000  -0.573489   1.419002
   39  C  3  Z    1.315383   0.000000  -1.337282   0.000000   0.000000
   40  C  3 XX    0.000000   0.028558   0.000000  -0.045958  -0.032116
   41  C  3 YY    0.000000   0.002415   0.000000  -0.031196   0.084674
   42  C  3 ZZ    0.000000  -0.023264   0.000000   0.063883   0.004760
   43  C  3 XY    0.000000  -0.033209   0.000000   0.075058  -0.020180
   44  C  3 XZ   -0.087492   0.000000   0.056712   0.000000   0.000000
   45  C  3 YZ    0.013140   0.000000  -0.036566   0.000000   0.000000
   46  H  4  S    0.000000  -0.541046   0.000000  -0.176335  -0.020288
   47  H  4  S    0.000000  -0.259949   0.000000   0.242360   0.198115
   48  H  5  S    0.000000  -0.588665   0.000000   0.236486   0.079283
   49  H  5  S    0.000000  -0.139780   0.000000   0.027795  -0.398136
   50  H  6  S    0.000000  -0.112226   0.000000   0.427423   0.376702
   51  H  6  S    0.000000  -0.147215   0.000000   0.871773  -0.042507
   52  H  7  S    0.278697  -0.080451  -0.207551  -0.056791   0.315279
   53  H  7  S    0.274080  -0.167337  -0.313170   0.405300   0.220985
   54  H  8  S   -0.278697  -0.080451   0.207551  -0.056791   0.315279
   55  H  8  S   -0.274080  -0.167337   0.313170   0.405300   0.220985
   56  H  9  S    0.000000  -0.011825   0.000000  -0.099989   0.177674
   57  H  9  S    0.000000   0.238798   0.000000  -1.093104   0.367380

                     31         32         33         34         35
                    0.8685     0.8801     0.8899     0.9242     0.9479
                     A'         A''        A'         A'         A'  
    1  C  1  S    0.003154   0.000000   0.013987   0.007656   0.024056
    2  C  1  S   -0.094916   0.000000   0.108895  -0.300820  -0.961993
    3  C  1  X    0.720508   0.000000  -0.106778  -0.107615  -0.421790
    4  C  1  Y   -0.775228   0.000000   0.130596   0.322408  -0.328761
    5  C  1  Z    0.000000  -0.084468   0.000000   0.000000   0.000000
    6  C  1  S    0.191412   0.000000  -1.061970  -0.056371   1.785642
    7  C  1  X   -1.771295   0.000000   0.457421   0.829987   0.721038
    8  C  1  Y    2.096582   0.000000   0.319354  -0.970983   0.645871
    9  C  1  Z    0.000000   0.108919   0.000000   0.000000   0.000000
   10  C  1 XX   -0.094784   0.000000   0.038895  -0.070595  -0.053846
   11  C  1 YY    0.085261   0.000000  -0.025504   0.043673   0.014072
   12  C  1 ZZ    0.004557   0.000000  -0.004655  -0.006822  -0.099643
   13  C  1 XY    0.049826   0.000000  -0.049926  -0.004294  -0.105782
   14  C  1 XZ    0.000000  -0.013676   0.000000   0.000000   0.000000
   15  C  1 YZ    0.000000   0.007142   0.000000   0.000000   0.000000
   16  C  2  S   -0.011625   0.000000  -0.025419   0.008640  -0.018352
   17  C  2  S   -0.160660   0.000000   0.593546  -0.519778  -0.441924
   18  C  2  X   -0.092583   0.000000  -0.757646   0.372484  -0.097171
   19  C  2  Y    0.325168   0.000000   0.291849  -0.203324  -0.019088
   20  C  2  Z    0.000000   0.001399   0.000000   0.000000   0.000000
   21  C  2  S    0.474937   0.000000  -0.679100   1.030757   1.072436
   22  C  2  X    0.619212   0.000000   2.118759  -0.588391   0.125939
   23  C  2  Y   -1.551381   0.000000  -0.462105   1.332329  -0.091074
   24  C  2  Z    0.000000  -0.103631   0.000000   0.000000   0.000000
   25  C  2 XX    0.038117   0.000000  -0.041789  -0.008220  -0.030943
   26  C  2 YY   -0.063941   0.000000   0.076624  -0.023733  -0.049865
   27  C  2 ZZ    0.003212   0.000000   0.068339  -0.037669   0.021367
   28  C  2 XY   -0.037660   0.000000   0.113230  -0.050946   0.025993
   29  C  2 XZ    0.000000  -0.023703   0.000000   0.000000   0.000000
   30  C  2 YZ    0.000000   0.099282   0.000000   0.000000   0.000000
   31  C  3  S   -0.010406   0.000000   0.007409  -0.017414   0.021693
   32  C  3  S    0.100962   0.000000   0.065548  -0.074804  -0.628080
   33  C  3  X   -0.239292   0.000000  -0.455572  -0.472100  -0.040174
   34  C  3  Y    0.081075   0.000000  -0.063938   0.071670   0.252788
   35  C  3  Z    0.000000  -0.847239   0.000000   0.000000   0.000000
   36  C  3  S   -0.997974   0.000000  -0.373605   0.879431   1.074687
   37  C  3  X    0.417483   0.000000   0.274782   0.425522   0.230104
   38  C  3  Y   -0.524219   0.000000  -0.037890   0.151936  -0.538872
   39  C  3  Z    0.000000   1.341469   0.000000   0.000000   0.000000
   40  C  3 XX   -0.010262   0.000000  -0.070424  -0.175304   0.025884
   41  C  3 YY   -0.061412   0.000000   0.004279   0.007388  -0.089922
   42  C  3 ZZ    0.060426   0.000000   0.076895   0.152020  -0.022085
   43  C  3 XY   -0.030981   0.000000  -0.076164  -0.033101   0.003180
   44  C  3 XZ    0.000000   0.148722   0.000000   0.000000   0.000000
   45  C  3 YZ    0.000000  -0.143279   0.000000   0.000000   0.000000
   46  H  4  S   -0.464535   0.000000   0.113363  -0.018022   0.520653
   47  H  4  S    1.872999   0.000000  -0.284087  -0.626279  -1.116455
   48  H  5  S    0.396132   0.000000   0.015895   0.114495   0.532282
   49  H  5  S   -1.743275   0.000000   0.059352   0.429099  -1.243516
   50  H  6  S    0.046649   0.000000  -0.551202   0.456684  -0.146105
   51  H  6  S    0.388689   0.000000   2.072078  -1.279607   0.084994
   52  H  7  S    0.102746  -0.700754   0.213720   0.280592   0.221317
   53  H  7  S   -0.256642   1.440717  -0.325405  -0.563595  -0.544443
   54  H  8  S    0.102746   0.700754   0.213720   0.280592   0.221317
   55  H  8  S   -0.256642  -1.440717  -0.325405  -0.563595  -0.544443
   56  H  9  S   -0.146682   0.000000  -0.402018  -0.815371   0.377162
   57  H  9  S    0.410749   0.000000   0.760411   1.007170  -0.516207

                     36         37         38         39         40
                    0.9647     1.1188     1.2451     1.3046     1.4317
                     A'         A'         A'         A'         A'' 
    1  C  1  S   -0.015991  -0.036185  -0.003241  -0.011223   0.000000
    2  C  1  S    0.363238  -1.498275  -0.249465  -0.316579   0.000000
    3  C  1  X    0.236941   0.191655  -0.042651  -0.008873   0.000000
    4  C  1  Y    0.342295   0.134992   0.186339  -0.111691   0.000000
    5  C  1  Z    0.000000   0.000000   0.000000   0.000000  -0.125859
    6  C  1  S   -0.577715   5.604439   0.675280   1.389827   0.000000
    7  C  1  X   -0.580887  -2.073352   1.570916   0.450883   0.000000
    8  C  1  Y   -0.707966  -0.676080  -2.620989  -0.657300   0.000000
    9  C  1  Z    0.000000   0.000000   0.000000   0.000000   0.061754
   10  C  1 XX    0.002552  -0.017391  -0.149325   0.013804   0.000000
   11  C  1 YY   -0.011135  -0.165918   0.117509   0.068757   0.000000
   12  C  1 ZZ    0.074736  -0.006184  -0.003716  -0.117343   0.000000
   13  C  1 XY    0.081024   0.090828   0.081244   0.036934   0.000000
   14  C  1 XZ    0.000000   0.000000   0.000000   0.000000  -0.392946
   15  C  1 YZ    0.000000   0.000000   0.000000   0.000000  -0.059723
   16  C  2  S   -0.015472   0.029224   0.004280   0.058238   0.000000
   17  C  2  S    0.087050   1.232112   0.395744   0.952294   0.000000
   18  C  2  X    0.059426   0.214429   0.197299   0.031727   0.000000
   19  C  2  Y    0.104842   0.241408  -0.254280  -0.070365   0.000000
   20  C  2  Z    0.000000   0.000000   0.000000   0.000000  -0.006962
   21  C  2  S   -0.437102  -4.723227  -1.029241  -4.458548   0.000000
   22  C  2  X   -0.216014  -1.315361  -1.866316  -0.708046   0.000000
   23  C  2  Y   -0.437010  -2.257129   2.688343   2.490260   0.000000
   24  C  2  Z    0.000000   0.000000   0.000000   0.000000  -0.076365
   25  C  2 XX   -0.006181   0.033576  -0.087273   0.111822   0.000000
   26  C  2 YY   -0.041958   0.098019   0.082770   0.053936   0.000000
   27  C  2 ZZ    0.034258   0.010882   0.025911  -0.107964   0.000000
   28  C  2 XY   -0.011439  -0.129621   0.062159  -0.020283   0.000000
   29  C  2 XZ    0.000000   0.000000   0.000000   0.000000   0.073320
   30  C  2 YZ    0.000000   0.000000   0.000000   0.000000   0.552660
   31  C  3  S    0.039287   0.038437   0.016748  -0.137593   0.000000
   32  C  3  S   -1.084997   0.485875   0.547828  -1.864493   0.000000
   33  C  3  X    0.051343   0.086898   0.263222   0.105725   0.000000
   34  C  3  Y    0.426100   0.032864   0.283832  -0.052173   0.000000
   35  C  3  Z    0.000000   0.000000   0.000000   0.000000   0.117011
   36  C  3  S    2.174503  -1.598401   0.704399   6.920340   0.000000
   37  C  3  X   -0.217961  -0.212692  -0.349241  -0.280336   0.000000
   38  C  3  Y   -0.815702  -0.158646   0.641434   1.558822   0.000000
   39  C  3  Z    0.000000   0.000000   0.000000   0.000000   0.163520
   40  C  3 XX   -0.024896   0.015509   0.051915  -0.096900   0.000000
   41  C  3 YY   -0.128436   0.070061   0.109572   0.021450   0.000000
   42  C  3 ZZ    0.019046   0.012781  -0.073446  -0.162700   0.000000
   43  C  3 XY    0.001166   0.034265  -0.126238  -0.040188   0.000000
   44  C  3 XZ    0.000000   0.000000   0.000000   0.000000  -0.297488
   45  C  3 YZ    0.000000   0.000000   0.000000   0.000000  -0.485410
   46  H  4  S   -0.357330   0.054316  -0.663552  -0.219669   0.000000
   47  H  4  S    0.695800  -0.127420  -0.953721  -0.543577   0.000000
   48  H  5  S   -0.340648  -0.273619   0.662340   0.111110   0.000000
   49  H  5  S    0.860776  -0.449237   0.842441  -0.184970   0.000000
   50  H  6  S   -0.031991   0.297653  -0.610610  -0.053587   0.000000
   51  H  6  S    0.106997   0.455716  -0.888094  -0.172079   0.000000
   52  H  7  S    0.518226   0.172040   0.063026  -0.492702   0.163082
   53  H  7  S   -0.955475   0.288650   0.318841  -0.522485  -0.026054
   54  H  8  S    0.518226   0.172040   0.063026  -0.492702  -0.163082
   55  H  8  S   -0.955475   0.288650   0.318841  -0.522485   0.026054
   56  H  9  S    0.388550   0.077866   0.098165  -0.511671   0.000000
   57  H  9  S   -1.033062  -0.061928  -0.141332  -0.803056   0.000000

                     41         42         43         44         45
                    1.4875     1.7129     1.8101     1.9029     1.9514
                     A''        A''        A'         A'         A'  
    1  C  1  S    0.000000   0.000000   0.014957  -0.000466  -0.024269
    2  C  1  S    0.000000   0.000000  -0.113485   0.005176  -0.177216
    3  C  1  X    0.000000   0.000000   0.159088   0.206379   0.074703
    4  C  1  Y    0.000000   0.000000   0.211403  -0.069423   0.217520
    5  C  1  Z   -0.120175  -0.021141   0.000000   0.000000   0.000000
    6  C  1  S    0.000000   0.000000  -1.343509  -0.751120  -0.013694
    7  C  1  X    0.000000   0.000000  -0.056659  -0.025760  -0.078987
    8  C  1  Y    0.000000   0.000000   0.610480   0.557650   0.479906
    9  C  1  Z    0.035958   0.060939   0.000000   0.000000   0.000000
   10  C  1 XX    0.000000   0.000000  -0.141962   0.358011  -0.057182
   11  C  1 YY    0.000000   0.000000   0.020434  -0.203953   0.567197
   12  C  1 ZZ    0.000000   0.000000   0.059649  -0.179812  -0.593886
   13  C  1 XY    0.000000   0.000000   0.179477  -0.216480  -0.081783
   14  C  1 XZ   -0.201640  -0.641355   0.000000   0.000000   0.000000
   15  C  1 YZ   -0.521582   0.647994   0.000000   0.000000   0.000000
   16  C  2  S    0.000000   0.000000  -0.007700  -0.016646  -0.043347
   17  C  2  S    0.000000   0.000000  -0.029759  -0.595210  -0.433345
   18  C  2  X    0.000000   0.000000  -0.061778   0.021074  -0.152532
   19  C  2  Y    0.000000   0.000000  -0.032928   0.209722   0.113835
   20  C  2  Z   -0.145497  -0.040243   0.000000   0.000000   0.000000
   21  C  2  S    0.000000   0.000000   0.462576   1.542697   1.667393
   22  C  2  X    0.000000   0.000000   1.817128   1.113120   0.443995
   23  C  2  Y    0.000000   0.000000   0.158462  -0.988093  -0.603504
   24  C  2  Z   -0.022102  -0.158405   0.000000   0.000000   0.000000
   25  C  2 XX    0.000000   0.000000   0.111683  -0.353426   0.525569
   26  C  2 YY    0.000000   0.000000  -0.262916   0.549297   0.015130
   27  C  2 ZZ    0.000000   0.000000   0.163216  -0.237388  -0.584527
   28  C  2 XY    0.000000   0.000000   0.355660   0.135479  -0.212832
   29  C  2 XZ    0.658731   0.141026   0.000000   0.000000   0.000000
   30  C  2 YZ   -0.108237  -0.013582   0.000000   0.000000   0.000000
   31  C  3  S    0.000000   0.000000  -0.016799   0.041601   0.026025
   32  C  3  S    0.000000   0.000000   0.036854  -0.137297   0.401520
   33  C  3  X    0.000000   0.000000   0.085281   0.042848  -0.019551
   34  C  3  Y    0.000000   0.000000   0.083072  -0.273253   0.005798
   35  C  3  Z   -0.041345  -0.067031   0.000000   0.000000   0.000000
   36  C  3  S    0.000000   0.000000   0.067405  -1.135796  -1.571222
   37  C  3  X    0.000000   0.000000  -0.624678  -0.312195  -0.316037
   38  C  3  Y    0.000000   0.000000  -0.097403  -0.241433  -0.513814
   39  C  3  Z    0.169376   0.248054   0.000000   0.000000   0.000000
   40  C  3 XX    0.000000   0.000000   0.445815  -0.082509   0.230801
   41  C  3 YY    0.000000   0.000000  -0.228973   0.412196   0.017615
   42  C  3 ZZ    0.000000   0.000000  -0.193757  -0.347354  -0.288392
   43  C  3 XY    0.000000   0.000000  -0.714790  -0.372115  -0.036442
   44  C  3 XZ    0.213399   0.204574   0.000000   0.000000   0.000000
   45  C  3 YZ    0.162094   0.337632   0.000000   0.000000   0.000000
   46  H  4  S    0.000000   0.000000   0.328643  -0.307724   0.001838
   47  H  4  S    0.000000   0.000000   0.165690   0.315664   0.080341
   48  H  5  S    0.000000   0.000000  -0.071857   0.136385  -0.557034
   49  H  5  S    0.000000   0.000000  -0.107188  -0.186603  -0.088790
   50  H  6  S    0.000000   0.000000   0.448245   0.409508  -0.452033
   51  H  6  S    0.000000   0.000000   0.609600   0.317811   0.160880
   52  H  7  S    0.014056   0.013073  -0.099042   0.211119   0.213632
   53  H  7  S    0.131684   0.098623   0.111481   0.011521   0.134500
   54  H  8  S   -0.014056  -0.013073  -0.099042   0.211119   0.213632
   55  H  8  S   -0.131684  -0.098623   0.111481   0.011521   0.134500
   56  H  9  S    0.000000   0.000000  -0.092149   0.225367  -0.081866
   57  H  9  S    0.000000   0.000000  -0.160174  -0.107788  -0.007592

                     46         47         48         49         50
                    2.1281     2.1468     2.1917     2.2136     2.2833
                     A''        A'         A'         A''        A'  
    1  C  1  S    0.000000  -0.037499  -0.026429   0.000000  -0.018595
    2  C  1  S    0.000000  -0.374388  -0.197488   0.000000  -0.104629
    3  C  1  X    0.000000   0.151197   0.013314   0.000000   0.096718
    4  C  1  Y    0.000000   0.077994  -0.009484   0.000000   0.000787
    5  C  1  Z   -0.007370   0.000000   0.000000   0.027967   0.000000
    6  C  1  S    0.000000   1.051160   1.397532   0.000000   0.080503
    7  C  1  X    0.000000  -0.510442  -0.055996   0.000000   0.101238
    8  C  1  Y    0.000000  -0.441550  -0.099550   0.000000  -0.371272
    9  C  1  Z    0.113799   0.000000   0.000000   0.215344   0.000000
   10  C  1 XX    0.000000   0.382685   0.214583   0.000000   0.616548
   11  C  1 YY    0.000000  -0.126421   0.371353   0.000000  -0.433026
   12  C  1 ZZ    0.000000  -0.446880  -0.529096   0.000000  -0.253888
   13  C  1 XY    0.000000   0.512208  -0.606720   0.000000  -0.167978
   14  C  1 XZ    0.076895   0.000000   0.000000  -0.410191   0.000000
   15  C  1 YZ   -0.213660   0.000000   0.000000  -0.454363   0.000000
   16  C  2  S    0.000000  -0.021441   0.016216   0.000000  -0.024333
   17  C  2  S    0.000000  -0.283075   0.496276   0.000000   0.068456
   18  C  2  X    0.000000  -0.213940   0.197173   0.000000  -0.015766
   19  C  2  Y    0.000000  -0.226646  -0.089256   0.000000  -0.373575
   20  C  2  Z    0.025587   0.000000   0.000000  -0.117148   0.000000
   21  C  2  S    0.000000  -0.031730  -0.968202   0.000000   0.364910
   22  C  2  X    0.000000  -0.301686  -0.567127   0.000000   0.224684
   23  C  2  Y    0.000000  -0.193546  -0.448562   0.000000  -0.065106
   24  C  2  Z   -0.414213   0.000000   0.000000  -0.202627   0.000000
   25  C  2 XX    0.000000   0.118871  -0.236975   0.000000  -0.028900
   26  C  2 YY    0.000000  -0.081547  -0.029397   0.000000   0.011144
   27  C  2 ZZ    0.000000  -0.268734   0.349574   0.000000  -0.016171
   28  C  2 XY    0.000000   0.477617   0.008012   0.000000   0.142901
   29  C  2 XZ   -0.342586   0.000000   0.000000  -0.503821   0.000000
   30  C  2 YZ    0.653218   0.000000   0.000000   0.043728   0.000000
   31  C  3  S    0.000000   0.009903  -0.000054   0.000000   0.019924
   32  C  3  S    0.000000   0.197799   0.151687   0.000000   0.152941
   33  C  3  X    0.000000   0.093223   0.086447   0.000000  -0.044738
   34  C  3  Y    0.000000   0.047108   0.028820   0.000000  -0.033028
   35  C  3  Z    0.061931   0.000000   0.000000  -0.105614   0.000000
   36  C  3  S    0.000000  -0.500135  -0.231426   0.000000  -0.503331
   37  C  3  X    0.000000   0.310895   0.275118   0.000000  -0.506029
   38  C  3  Y    0.000000  -0.223201  -0.241759   0.000000  -0.457251
   39  C  3  Z    0.739222   0.000000   0.000000  -0.164898   0.000000
   40  C  3 XX    0.000000  -0.470033  -0.196139   0.000000   0.786816
   41  C  3 YY    0.000000  -0.029460  -0.380072   0.000000  -0.505855
   42  C  3 ZZ    0.000000   0.489280   0.550421   0.000000  -0.243877
   43  C  3 XY    0.000000   0.101151  -0.258409   0.000000   0.441575
   44  C  3 XZ    0.743487   0.000000   0.000000  -0.549543   0.000000
   45  C  3 YZ    0.287576   0.000000   0.000000   0.651431   0.000000
   46  H  4  S    0.000000  -0.040887  -0.505069   0.000000  -0.484035
   47  H  4  S    0.000000  -0.055613  -0.064971   0.000000   0.079796
   48  H  5  S    0.000000   0.108267  -0.394067   0.000000   0.308073
   49  H  5  S    0.000000  -0.043848  -0.024762   0.000000   0.058028
   50  H  6  S    0.000000   0.095262   0.193242   0.000000   0.131064
   51  H  6  S    0.000000  -0.195304  -0.016927   0.000000   0.009839
   52  H  7  S    0.394114  -0.125475  -0.259632  -0.467767   0.202556
   53  H  7  S    0.144386  -0.002932   0.047755   0.103757   0.003875
   54  H  8  S   -0.394114  -0.125475  -0.259632   0.467767   0.202556
   55  H  8  S   -0.144386  -0.002932   0.047755  -0.103757   0.003875
   56  H  9  S    0.000000   0.359451   0.297569   0.000000  -0.612786
   57  H  9  S    0.000000   0.038065  -0.054118   0.000000  -0.001802

                     51         52         53         54         55
                    2.4880     2.5282     2.7526     2.8573     4.1159
                     A''        A'         A'         A'         A'  
    1  C  1  S    0.000000   0.048326  -0.054299   0.016392  -0.316982
    2  C  1  S    0.000000   0.091020   0.270146  -0.135648   2.164175
    3  C  1  X    0.000000   0.112180  -0.564246   0.249452  -0.067445
    4  C  1  Y    0.000000   0.090524  -0.425343   0.073086  -0.061981
    5  C  1  Z   -0.118109   0.000000   0.000000   0.000000   0.000000
    6  C  1  S    0.000000  -1.563495   1.813788  -0.359364   0.822621
    7  C  1  X    0.000000   0.420494  -1.040643  -0.125119   0.054614
    8  C  1  Y    0.000000   0.406856  -0.487104   0.462153   0.198311
    9  C  1  Z   -0.185121   0.000000   0.000000   0.000000   0.000000
   10  C  1 XX    0.000000   0.068177   0.318618  -0.761394  -1.225771
   11  C  1 YY    0.000000  -0.448184   0.172422   0.624325  -1.256406
   12  C  1 ZZ    0.000000   0.486580  -0.444382   0.140893  -1.224666
   13  C  1 XY    0.000000  -0.189729   0.907049   0.010401   0.029064
   14  C  1 XZ    0.598730   0.000000   0.000000   0.000000   0.000000
   15  C  1 YZ    0.353441   0.000000   0.000000   0.000000   0.000000
   16  C  2  S    0.000000  -0.091421   0.032446  -0.067715  -0.308660
   17  C  2  S    0.000000  -0.115101  -0.266260   0.160197   2.005254
   18  C  2  X    0.000000   0.125723  -0.564261   0.143870   0.078554
   19  C  2  Y    0.000000  -0.153434  -0.488394  -0.006777   0.067587
   20  C  2  Z    0.050560   0.000000   0.000000   0.000000   0.000000
   21  C  2  S    0.000000   2.706127  -1.264073   1.366860   0.856461
   22  C  2  X    0.000000   0.631890  -0.794630   0.264095   0.034942
   23  C  2  Y    0.000000  -0.510732  -1.194392  -0.700570  -0.121114
   24  C  2  Z    0.202249   0.000000   0.000000   0.000000   0.000000
   25  C  2 XX    0.000000   0.306972  -0.746260  -0.648334  -1.156545
   26  C  2 YY    0.000000   0.431598   0.384604   0.830647  -1.137426
   27  C  2 ZZ    0.000000  -0.809905   0.316496  -0.384791  -1.195761
   28  C  2 XY    0.000000  -0.266603  -0.889259   0.602734   0.031775
   29  C  2 XZ    0.556532   0.000000   0.000000   0.000000   0.000000
   30  C  2 YZ    0.641608   0.000000   0.000000   0.000000   0.000000
   31  C  3  S    0.000000   0.055617   0.025694   0.053204  -0.164542
   32  C  3  S    0.000000   0.075498  -0.027789  -0.168855   0.979807
   33  C  3  X    0.000000  -0.003995  -0.003877   0.020769  -0.013507
   34  C  3  Y    0.000000  -0.265076  -0.164085  -0.329581   0.079225
   35  C  3  Z   -0.033313   0.000000   0.000000   0.000000   0.000000
   36  C  3  S    0.000000  -1.538216  -0.666155  -1.054292   0.503512
   37  C  3  X    0.000000   0.129205  -0.002781   0.091992   0.008005
   38  C  3  Y    0.000000  -0.840497  -0.442240  -0.548224  -0.173076
   39  C  3  Z   -0.148857   0.000000   0.000000   0.000000   0.000000
   40  C  3 XX    0.000000   0.125344   0.224081   0.384520  -0.641129
   41  C  3 YY    0.000000  -0.639040  -0.341879  -0.466737  -0.488884
   42  C  3 ZZ    0.000000   0.621959   0.146572   0.248695  -0.654053
   43  C  3 XY    0.000000  -0.364996  -0.163432   0.331110  -0.030118
   44  C  3 XZ   -0.409728   0.000000   0.000000   0.000000   0.000000
   45  C  3 YZ    0.527323   0.000000   0.000000   0.000000   0.000000
   46  H  4  S    0.000000   0.037344   0.128864   0.333430   0.145650
   47  H  4  S    0.000000   0.107416   0.124189   0.072295  -0.242869
   48  H  5  S    0.000000   0.333885  -0.077389  -0.346043   0.121558
   49  H  5  S    0.000000  -0.027572   0.050345  -0.011095  -0.349480
   50  H  6  S    0.000000  -0.407548   0.011601   0.345662   0.133612
   51  H  6  S    0.000000   0.226975   0.032609  -0.095601  -0.215086
   52  H  7  S   -0.324335  -0.180332  -0.022035   0.002308   0.070841
   53  H  7  S    0.085316   0.059570   0.003596  -0.011887  -0.212899
   54  H  8  S    0.324335  -0.180332  -0.022035   0.002308   0.070841
   55  H  8  S   -0.085316   0.059570   0.003596  -0.011887  -0.212899
   56  H  9  S    0.000000   0.237637  -0.016717  -0.138699   0.055791
   57  H  9  S    0.000000   0.012635  -0.103488   0.134834  -0.162721

                     56         57
                    4.2000     4.4023
                     A'         A'  
    1  C  1  S    0.307972   0.171472
    2  C  1  S   -1.826381  -1.009189
    3  C  1  X   -0.154672  -0.236609
    4  C  1  Y   -0.140529  -0.145281
    5  C  1  Z    0.000000   0.000000
    6  C  1  S   -1.659136  -1.211441
    7  C  1  X    0.095249   0.086325
    8  C  1  Y    0.223711   0.094497
    9  C  1  Z    0.000000   0.000000
   10  C  1 XX    1.295724   0.929258
   11  C  1 YY    1.239822   0.741528
   12  C  1 ZZ    1.169813   0.599017
   13  C  1 XY    0.145255   0.170204
   14  C  1 XZ    0.000000   0.000000
   15  C  1 YZ    0.000000   0.000000
   16  C  2  S   -0.152445  -0.332880
   17  C  2  S    0.799345   2.022164
   18  C  2  X   -0.204822  -0.208195
   19  C  2  Y   -0.203023   0.003541
   20  C  2  Z    0.000000   0.000000
   21  C  2  S    0.782618   2.100863
   22  C  2  X    0.277193   0.109568
   23  C  2  Y    0.228089  -0.175742
   24  C  2  Z    0.000000   0.000000
   25  C  2 XX   -0.768710  -1.418468
   26  C  2 YY   -0.469552  -1.656418
   27  C  2 ZZ   -0.552325  -1.230109
   28  C  2 XY   -0.154828  -0.180247
   29  C  2 XZ    0.000000   0.000000
   30  C  2 YZ    0.000000   0.000000
   31  C  3  S   -0.356548   0.303946
   32  C  3  S    2.027392  -1.772933
   33  C  3  X   -0.014486  -0.022540
   34  C  3  Y   -0.016583   0.162895
   35  C  3  Z    0.000000   0.000000
   36  C  3  S    1.728215  -2.077639
   37  C  3  X    0.003522   0.035514
   38  C  3  Y   -0.026664  -0.193900
   39  C  3  Z    0.000000   0.000000
   40  C  3 XX   -1.336821   1.144928
   41  C  3 YY   -1.311861   1.458570
   42  C  3 ZZ   -1.379112   1.109943
   43  C  3 XY   -0.010298  -0.035701
   44  C  3 XZ    0.000000   0.000000
   45  C  3 YZ    0.000000   0.000000
   46  H  4  S   -0.064062  -0.070966
   47  H  4  S    0.332252   0.228697
   48  H  5  S   -0.104047  -0.047652
   49  H  5  S    0.227542   0.206075
   50  H  6  S    0.075084   0.074705
   51  H  6  S   -0.098695  -0.323341
   52  H  7  S    0.092828  -0.027061
   53  H  7  S   -0.388053   0.287240
   54  H  8  S    0.092828  -0.027061
   55  H  8  S   -0.388053   0.287240
   56  H  9  S    0.080017  -0.040705
   57  H  9  S   -0.341454   0.355998
 ...... END OF RHF CALCULATION ......
 STEP CPU TIME =     6.40 TOTAL CPU TIME =          6.5 (      0.1 MIN)
 TOTAL WALL CLOCK TIME=          6.6 SECONDS, CPU UTILIZATION IS    97.73%

     ---------------------------------------------------------------------
     PROPERTIES FOR THE B3LYP    DFT FUNCTIONAL (RHF  TYPE) DENSITY MATRIX
     ---------------------------------------------------------------------

          -----------------
          ENERGY COMPONENTS
          -----------------

         WAVEFUNCTION NORMALIZATION =       1.0000000000

                ONE ELECTRON ENERGY =    -297.0986846500
                TWO ELECTRON ENERGY =     108.4699920458
           NUCLEAR REPULSION ENERGY =      70.8126004304
                                      ------------------
                       TOTAL ENERGY =    -117.8160921737

 ELECTRON-ELECTRON POTENTIAL ENERGY =     108.4699920458
  NUCLEUS-ELECTRON POTENTIAL ENERGY =    -413.8208017737
   NUCLEUS-NUCLEUS POTENTIAL ENERGY =      70.8126004304
                                      ------------------
             TOTAL POTENTIAL ENERGY =    -234.5382092974
               TOTAL KINETIC ENERGY =     116.7221171237
                 VIRIAL RATIO (V/T) =       2.0093724744

          ---------------------------------------
          MULLIKEN AND LOWDIN POPULATION ANALYSES
          ---------------------------------------

     ATOMIC MULLIKEN POPULATION IN EACH MOLECULAR ORBITAL

                      1          2          3          4          5

                  2.000000   2.000000   2.000000   2.000000   2.000000

    1             0.002980   0.000029   1.996191   0.480171   0.576821
    2             1.995121   0.001739   0.002979   0.758979   0.275888
    3             0.001524   1.996638   0.000006   0.547801   0.705908
    4            -0.000013   0.000001   0.000413   0.028934   0.059384
    5             0.000009  -0.000000   0.000411   0.024915   0.086817
    6             0.000355  -0.000002  -0.000002   0.049069   0.003722
    7             0.000014   0.000530   0.000000   0.036078   0.091617
    8             0.000014   0.000530   0.000000   0.036078   0.091617
    9            -0.000004   0.000535  -0.000000   0.037975   0.108227

                      6          7          8          9         10

                  2.000000   2.000000   2.000000   2.000000   2.000000

    1             0.481309   0.577160   0.559293   0.034564   0.326531
    2             0.576921   0.398150   0.385724   0.159210   0.276276
    3             0.247833   0.366969   0.478978   1.030622   0.654277
    4             0.198176   0.019460   0.315453   0.000000   0.000828
    5             0.088404   0.318642   0.010457   0.000000   0.149008
    6             0.273706   0.142463   0.008184   0.000000   0.049286
    7             0.060349   0.000445   0.099447   0.387802   0.037519
    8             0.060349   0.000445   0.099447   0.387802   0.037519
    9             0.012952   0.176266   0.043016   0.000000   0.468755

                     11         12

                  2.000000   2.000000

    1             0.283246   1.005215
    2             0.416742   0.818799
    3             0.390144   0.061520
[...]
               TOTAL  0.05377833  6.32009847 14.95396744 13.96058119  0.02098935

                            6           7           8           9          10
       FREQUENCY:         0.07        0.45      415.13      590.42      926.54  
        SYMMETRY:         A'          A''         A'          A''         A'  
    REDUCED MASS:      4.67101     4.66848     1.98665     1.30793     2.01370
    IR INTENSITY:      0.00000     0.00000     0.01023     0.27470     0.01100

  1   C            X -0.10844879  0.07787580  0.00518112 -0.00000162 -0.00896803
                   Y  0.10929357  0.07438337  0.11769784 -0.00000261 -0.11294667
                   Z  0.00304708  0.11023557  0.00000222  0.04016235 -0.00001905
  2   C            X -0.10857560  0.07794524  0.12409623 -0.00000487  0.03061725
                   Y  0.10948523  0.07429227 -0.05938126 -0.00000050 -0.09338386
                   Z  0.00304139  0.10999168 -0.00000380 -0.13791632  0.00000349
  3   C            X -0.10883951  0.07807119 -0.08112948 -0.00000008 -0.00961493
                   Y  0.10949596  0.07430234 -0.07372435 -0.00000170  0.15117873
                   Z  0.00305177  0.11079791  0.00000022  0.01548584  0.00000464
  4   H            X -0.10850932  0.07791420  0.11399208 -0.00000465  0.14452206
                   Y  0.10913236  0.07447364  0.38690683 -0.00000995  0.27739834
                   Z  0.00306010  0.11106231  0.00000082 -0.33564531  0.00006300
  5   H            X -0.10824783  0.07778743 -0.27934282  0.00000460 -0.47641619
                   Y  0.10931202  0.07437985  0.09873752 -0.00000234 -0.14977501
                   Z  0.00303878  0.10961194  0.00000749  0.59247085  0.00009480
  6   H            X -0.10848678  0.07790851  0.11548825 -0.00000540  0.09611247
                   Y  0.10966005  0.07421221 -0.07063804 -0.00000154  0.03115014
                   Z  0.00302795  0.10913976 -0.00000030  0.31523058 -0.00000983
  7   H            X -0.10889813  0.07855735 -0.17343692 -0.02343371  0.03642124
                   Y  0.10938722  0.07387392 -0.19299530 -0.24545960  0.20254481
                   Z  0.00306363  0.11126930 -0.00204874  0.11121453  0.00544469
  8   H            X -0.10891550  0.07764133 -0.17341404  0.02343865  0.03642103
                   Y  0.10939888  0.07479930 -0.19298033  0.24546237  0.20250980
                   Z  0.00305510  0.11126929  0.00204271  0.11121427 -0.00545151
  9   H            X -0.10890548  0.07810806 -0.17667964  0.00000247  0.01971425
                   Y  0.10965591  0.07421155  0.15450480 -0.00000787  0.09258078
                   Z  0.00304449  0.11048927  0.00001907  0.18522406 -0.00001196

 TRANS. SAYVETZ    X -4.56743154  3.27828502 -0.00010538 -0.00007690  0.00006566
                   Y  4.60098096  3.12517579  0.00007837 -0.00007689 -0.00027636
                   Z  0.12811612  4.64033055  0.00000476  0.00015762 -0.00000088
               TOTAL  6.48435582  6.48433065  0.00013142  0.00019149  0.00028405

   ROT. SAYVETZ    X -0.00029987 -0.02908723 -0.00001205  0.02162478  0.00000263
                   Y -0.00013719 -0.00403957  0.00001128 -0.00264361 -0.00000211
                   Z -0.02054685  0.00992422  0.03433033  0.00005056  0.00436065
               TOTAL  0.02054950  0.03099799  0.03433033  0.02178583  0.00436065

                           11          12          13          14          15
       FREQUENCY:       931.28      980.71     1023.06     1066.31     1184.86  
        SYMMETRY:         A''         A'          A''         A''         A'  
    REDUCED MASS:      1.33277     1.33627     1.05207     1.48104     1.73276
    IR INTENSITY:      0.72750     0.01383     0.40238     0.00266     0.13930

  1   C            X  0.00000089 -0.06334690 -0.00000121 -0.00000063  0.02558969
                   Y  0.00001549 -0.00601290 -0.00000191 -0.00000139 -0.07330685
                   Z -0.14313652  0.00000132 -0.01099372 -0.02251314 -0.00000001
  2   C            X -0.00000333  0.02525720 -0.00000029 -0.00000062 -0.08608432
                   Y  0.00001270 -0.05076777 -0.00000295 -0.00000255  0.10891650
                   Z  0.03634263 -0.00000117 -0.02726018  0.12357855  0.00000034
  3   C            X  0.00000204  0.08863256  0.00000102  0.00000024  0.09884127
                   Y -0.00001979  0.08509330  0.00000339  0.00000238 -0.05467329
                   Z  0.01928365  0.00000190 -0.05442749 -0.11527777 -0.00000058
  4   H            X -0.00002016 -0.16581141 -0.00000168 -0.00000106  0.14224863
                   Y -0.00003808 -0.25612729 -0.00000274 -0.00000214  0.23299639
                   Z  0.54417454 -0.00001410  0.54274118 -0.04859554 -0.00000011
  5   H            X  0.00006551  0.15257147 -0.00000392 -0.00000333 -0.30613271
                   Y  0.00002061  0.00472889 -0.00000237 -0.00000183 -0.09287107
                   Z  0.64120608  0.00000253 -0.32213360  0.05351761 -0.00000044
  6   H            X -0.00001267 -0.09562737 -0.00000230 -0.00000230  0.02874337
                   Y -0.00000523 -0.30841322 -0.00000731 -0.00000617  0.35342302
                   Z -0.06100492 -0.00000562  0.66477394 -0.34488388  0.00000109
  7   H            X -0.00824285 -0.18419879  0.02119039  0.06983689 -0.14368088
                   Y  0.08548966 -0.18474769 -0.21026144 -0.45735126 -0.25450941
                   Z -0.02307608 -0.03967831  0.05846653  0.13454264 -0.05310792
  8   H            X  0.00823008 -0.18419920 -0.02119482 -0.06983862 -0.14368242
                   Y -0.08554767 -0.18476052  0.21026236  0.45735455 -0.25450343
                   Z -0.02307404  0.03967602  0.05846767  0.13454324  0.05311020
  9   H            X -0.00000368 -0.12454725 -0.00000148 -0.00000054 -0.03411261
                   Y -0.00000771  0.59206671  0.00000950  0.00000442  0.24251451
                   Z -0.03624349 -0.00000532  0.10128507  0.24012976  0.00000015

 TRANS. SAYVETZ    X  0.00001148 -0.00000742 -0.00001973 -0.00002114 -0.00002996
                   Y  0.00001165 -0.00014064 -0.00001967 -0.00002130  0.00006297
                   Z  0.00001270 -0.00000032  0.00005989  0.00002990 -0.00000008
               TOTAL  0.00002070  0.00014084  0.00006605  0.00004236  0.00006974

   ROT. SAYVETZ    X -0.00480736  0.00000163  0.00080545  0.00196774  0.00000016
                   Y  0.00121857 -0.00000134 -0.00047166  0.00125305 -0.00000074
                   Z -0.00000795  0.00653694  0.00001293  0.00001389  0.00444162
               TOTAL  0.00495940  0.00653694  0.00093347  0.00233288  0.00444162

                           16          17          18          19          20
       FREQUENCY:      1343.88     1432.03     1471.60     1519.89     1521.96  
        SYMMETRY:         A'          A'          A'          A'          A'' 
    REDUCED MASS:      1.24699     1.18485     1.22134     1.05021     1.04419
    IR INTENSITY:      0.01479     0.02319     0.04153     0.11017     0.12260

  1   C            X -0.10030863  0.00423307 -0.03350617 -0.01105276 -0.00000056
                   Y  0.01374017 -0.00149729 -0.00281581 -0.01609802 -0.00000084
                   Z -0.00000002  0.00000000 -0.00000001 -0.00000013  0.00191183
  2   C            X  0.07124653 -0.02882852 -0.05487516 -0.01034934 -0.00000186
                   Y -0.03964793 -0.01879785 -0.09111861  0.01637505 -0.00000049
                   Z  0.00000023 -0.00000004  0.00000012  0.00000112 -0.01637834
  3   C            X  0.01335933  0.01927039  0.01389872 -0.04799285 -0.00000288
                   Y -0.01927065 -0.10961732  0.05715168 -0.02473749 -0.00000105
                   Z -0.00000034  0.00000001  0.00000011  0.00000337 -0.05381568
  4   H            X -0.23450030  0.09258676  0.18926655  0.02355118  0.00000154
                   Y -0.30388462  0.18999234  0.49726102  0.06719597  0.00000411
                   Z -0.00000049  0.00000003 -0.00000020  0.00000018 -0.00432352
  5   H            X -0.01421409  0.19095538  0.62491088  0.03899293  0.00000329
                   Y  0.00953330  0.02014841  0.06163082 -0.01209710 -0.00000056
                   Z -0.00000014  0.00000005 -0.00000003 -0.00000063  0.00998269
  6   H            X  0.41589052 -0.02503732  0.10148101 -0.00824290  0.00000086
                   Y  0.67320018  0.00033963  0.23747355  0.02266966  0.00000554
                   Z  0.00000168 -0.00000004  0.00000056  0.00000008  0.00395221
  7   H            X  0.01822794 -0.00227231 -0.04835522  0.48900029  0.36106143
                   Y  0.04712312  0.45785581 -0.13907762 -0.10017187  0.30803013
                   Z -0.02354564 -0.24037463  0.04653881  0.33848672  0.04846174
  8   H            X  0.01822745 -0.00227289 -0.04835272  0.48904677 -0.36099796
                   Y  0.04712949  0.45785497 -0.13907343 -0.10013064 -0.30804534
                   Z  0.02354768  0.24037469 -0.04653859 -0.33849264  0.04841670
  9   H            X -0.01664683 -0.19057195  0.06793232 -0.20603836 -0.00001310
                   Y  0.06476836  0.42081095 -0.08042920  0.41381944  0.00002732
                   Z -0.00000178  0.00000070 -0.00000333 -0.00004607  0.70656102

 TRANS. SAYVETZ    X  0.00001456 -0.00001708  0.00003132  0.00003637 -0.00000715
                   Y -0.00006231  0.00015784 -0.00018204  0.00003921 -0.00000716
                   Z -0.00000025  0.00000042 -0.00000017 -0.00000062  0.00002675
               TOTAL  0.00006399  0.00015876  0.00018472  0.00005348  0.00002860

   ROT. SAYVETZ    X  0.00000034 -0.00000114  0.00000063  0.00000146  0.00074130
                   Y -0.00000037  0.00000025 -0.00000023 -0.00000056  0.00049996
                   Z  0.00149028  0.00172053  0.00134990 -0.00120531  0.00000507
               TOTAL  0.00149028  0.00172053  0.00134990  0.00120531  0.00089416

                           21          22          23          24          25
       FREQUENCY:      1730.87     3045.13     3097.25     3122.40     3147.39  
        SYMMETRY:         A'          A'          A''         A'          A'  
    REDUCED MASS:      4.36341     1.03752     1.10108     1.09858     1.06276
    IR INTENSITY:      0.18962     0.52539     0.52305     0.32836     0.63613

  1   C            X  0.13957193  0.00087768  0.00000008  0.00273349 -0.04873822
                   Y  0.10809145  0.00041921  0.00000002  0.00336678 -0.02703922
                   Z  0.00000002  0.00000000  0.00042201  0.00000000 -0.00000000
  2   C            X -0.13808670 -0.00064455  0.00000001  0.02114454 -0.02926296
                   Y -0.13832629 -0.00048879 -0.00000001 -0.00869945  0.01956975
                   Z -0.00000006  0.00000000 -0.00025315 -0.00000000  0.00000001
  3   C            X  0.01247198 -0.01655571  0.00000012 -0.08286435 -0.01877803
                   Y  0.02096886  0.04824606  0.00000000 -0.01035353 -0.00198442
                   Z  0.00000084 -0.00000002 -0.08777439 -0.00000006 -0.00000043
  4   H            X  0.01634028 -0.01494788 -0.00000303 -0.04328655  0.58957814
                   Y -0.24775212  0.00780979  0.00000135  0.02067078 -0.25147207
                   Z  0.00000125  0.00000000 -0.00279113  0.00000001 -0.00000014
  5   H            X -0.19609088  0.00327143  0.00000035  0.00681091 -0.05310810
                   Y  0.10262095 -0.01371260 -0.00000333 -0.06791913  0.53949829
                   Z -0.00000039 -0.00000000  0.00095370 -0.00000001  0.00000005
  6   H            X -0.00662353  0.00912630 -0.00000012 -0.25022659  0.39354627
                   Y  0.18718974 -0.00278223  0.00000007  0.11796784 -0.18986260
                   Z -0.00000259 -0.00000001 -0.00437172 -0.00000002  0.00000020
  7   H            X  0.01966906  0.29593416 -0.32978811  0.11412220  0.02952607
                   Y -0.01814577 -0.20732171  0.23464338 -0.09569680 -0.02569092
                   Z  0.01926314 -0.51036594  0.53498221 -0.22534029 -0.05725158
  8   H            X  0.01967767  0.29593436  0.32978760  0.11412276  0.02952848
                   Y -0.01814749 -0.20732184 -0.23464296 -0.09569721 -0.02569272
                   Z -0.01926659  0.51036623  0.53498119  0.22534112  0.05725657
  9   H            X -0.01921638 -0.39497253 -0.00000090  0.76079818  0.16327610
                   Y  0.10468111 -0.15031447 -0.00000033  0.30745415  0.06572944
                   Z -0.00000384 -0.00000000 -0.02061607 -0.00000001 -0.00000005

 TRANS. SAYVETZ    X -0.00005810 -0.00000441 -0.00000183  0.00000087  0.00001359
                   Y  0.00011887 -0.00001404 -0.00000173  0.00000670 -0.00005681
                   Z  0.00000045  0.00000001  0.00003442  0.00000002 -0.00000004
               TOTAL  0.00013231  0.00001472  0.00003451  0.00000676  0.00005841

   ROT. SAYVETZ    X -0.00000153  0.00000001  0.00048720 -0.00000010  0.00000012
                   Y  0.00000116  0.00000001  0.00009584  0.00000004 -0.00000010
                   Z  0.00030160 -0.00026212  0.00000098 -0.00008742  0.00004077
               TOTAL  0.00030160  0.00026212  0.00049654  0.00008742  0.00004077

                           26          27
       FREQUENCY:      3155.06     3229.86  
        SYMMETRY:         A'          A'  
    REDUCED MASS:      1.09010     1.11503
    IR INTENSITY:      0.24411     0.56059

  1   C            X  0.03937922  0.04463989
                   Y  0.00589456 -0.08111336
                   Z  0.00000000 -0.00000000
  2   C            X -0.06586722  0.01224541
                   Y  0.02441296 -0.00484116
                   Z -0.00000000  0.00000000
  3   C            X -0.01806849  0.00077731
                   Y -0.00441052  0.00094662
                   Z  0.00000019 -0.00000008
  4   H            X -0.42072597 -0.50311565
                   Y  0.17545504  0.19752267
                   Z  0.00000007 -0.00000006
  5   H            X  0.02015644 -0.05281573
                   Y -0.18706636  0.75858333
                   Z -0.00000003  0.00000002
  6   H            X  0.71476060 -0.11983836
                   Y -0.33913140  0.05631063
                   Z -0.00000010  0.00000010
  7   H            X  0.02035690  0.00021033
                   Y -0.01671212  0.00257653
                   Z -0.04133990  0.00189333
  8   H            X  0.02035599  0.00021059
                   Y -0.01671143  0.00257632
                   Z  0.04133777 -0.00189243
  9   H            X  0.17562393 -0.01123989
                   Y  0.07581767 -0.00540321
                   Z  0.00000001  0.00000000

 TRANS. SAYVETZ    X  0.00000151 -0.00001003
                   Y  0.00000260 -0.00000832
                   Z  0.00000001 -0.00000002
               TOTAL  0.00000301  0.00001303

   ROT. SAYVETZ    X -0.00000002  0.00000005
                   Y  0.00000016 -0.00000004
                   Z -0.00084096 -0.00024160
               TOTAL  0.00084096  0.00024160

 REFERENCE ON SAYVETZ CONDITIONS - A. SAYVETZ, J.CHEM.PHYS., 7, 383-389(1939).

 NOTE - THE MODES J,K ARE ORTHONORMALIZED ACCORDING TO
 SUM ON I   M(I) * (X(I,J)*X(I,K) + Y(I,J)*Y(I,K) + Z(I,J)*Z(I,K)) = DELTA(J,K)

  MODE FREQ(CM**-1)  SYMMETRY  RED. MASS  IR INTENS.
     1     223.501    A''      1.092718    0.013130
     2      28.106    A''      1.431320    0.000030
     3      20.337    A'       2.592663    0.001845
     4      18.849    A''      2.769389    0.002156
     5       0.435    A''      4.669436    0.000000
     6       0.068    A'       4.671012    0.000000
     7       0.447    A''      4.668479    0.000000
     8     415.129    A'       1.986650    0.010234
     9     590.422    A''      1.307926    0.274698
    10     926.544    A'       2.013697    0.010998
    11     931.276    A''      1.332774    0.727505
    12     980.711    A'       1.336274    0.013832
    13    1023.061    A''      1.052075    0.402384
    14    1066.307    A''      1.481038    0.002659
    15    1184.860    A'       1.732763    0.139296
    16    1343.877    A'       1.246994    0.014789
    17    1432.034    A'       1.184847    0.023187
    18    1471.602    A'       1.221338    0.041532
    19    1519.887    A'       1.050213    0.110172
    20    1521.959    A''      1.044187    0.122602
    21    1730.869    A'       4.363412    0.189624
    22    3045.134    A'       1.037515    0.525390
    23    3097.249    A''      1.101075    0.523048
    24    3122.399    A'       1.098578    0.328361
    25    3147.388    A'       1.062758    0.636126
    26    3155.060    A'       1.090095    0.244108
    27    3229.861    A'       1.115034    0.560586

     -------------------------------
     THERMOCHEMISTRY AT T=  298.15 K
     -------------------------------

 USING IDEAL GAS, RIGID ROTOR, HARMONIC NORMAL MODE APPROXIMATIONS.
 P=  1.01325E+05 PASCAL.
 ALL FREQUENCIES ARE SCALED BY   1.00000
 THE MOMENTS OF INERTIA ARE (IN AMU*BOHR**2)
             38.86663           195.97933           223.62315
 THE ROTATIONAL SYMMETRY NUMBER IS  1.0
 THE ROTATIONAL CONSTANTS ARE (IN GHZ)
     46.39168     9.20040     8.06307
   1 IMAGINARY FREQUENCY VIBRATION(S) IS(ARE) EXCLUDED
     FROM THE FOLLOWING THERMOCHEMICAL ANALYSIS.
      8 -     27 VIBRATIONAL MODES ARE USED IN THERMOCHEMISTRY.
 THE HARMONIC ZERO POINT ENERGY IS (SCALED BY   1.000)
        0.079589 HARTREE/MOLECULE    17467.814495 CM**-1/MOLECULE 
       49.943038 KCAL/MOL              208.961671 KJ/MOL

               Q               LN Q
 ELEC.     1.00000E+00       0.000000
 TRANS.    1.07166E+07      16.187301
 ROT.      1.47738E+04       9.600613
 VIB.      1.29348E+00       0.257333
 TOT.      2.04789E+11      26.045247

              E         H         G         CV        CP        S
           KJ/MOL    KJ/MOL    KJ/MOL   J/MOL-K   J/MOL-K   J/MOL-K
 ELEC.      0.000     0.000     0.000     0.000     0.000     0.000
 TRANS.     3.718     6.197   -40.127    12.472    20.786   155.374
 ROT.       3.718     3.718   -23.799    12.472    12.472    92.295
 VIB.     210.823   210.823   208.324    21.621    21.621     8.382
 TOTAL    218.260   220.739   144.397    46.564    54.879   256.051
 VIB. THERMAL CORRECTION E(T)-E(0) = H(T)-H(0) =      1861.322 J/MOL

              E         H         G         CV        CP        S
         KCAL/MOL  KCAL/MOL  KCAL/MOL CAL/MOL-K CAL/MOL-K CAL/MOL-K
 ELEC.      0.000     0.000     0.000     0.000     0.000     0.000
 TRANS.     0.889     1.481    -9.591     2.981     4.968    37.135
 ROT.       0.889     0.889    -5.688     2.981     2.981    22.059
 VIB.      50.388    50.388    49.791     5.168     5.168     2.003
 TOTAL     52.165    52.758    34.512    11.129    13.116    61.198
 VIB. THERMAL CORRECTION E(T)-E(0) = H(T)-H(0) =       444.867 CAL/MOL
 ......END OF NORMAL COORDINATE ANALYSIS......
 STEP CPU TIME =     0.00 TOTAL CPU TIME =        442.9 (      7.4 MIN)
 TOTAL WALL CLOCK TIME=        463.6 SECONDS, CPU UTILIZATION IS    95.55%
               1075896  WORDS OF DYNAMIC MEMORY USED
 EXECUTION OF GAMESS TERMINATED NORMALLY Tue Oct  4 20:52:04 2022
 DDI: 263640 bytes (0.3 MB / 0 MWords) used by master data server.

 ----------------------------------------
 CPU timing information for all processes
 ========================================
 0: 440.202 + 2.749 = 442.951
 ----------------------------------------
 ddikick.x: exited gracefully.
----- accounting info -----
Files used on the master node chemcompute-node-0.novalocal were:
-rw-r--r--. 1 chemcomp chemcomp      960 Oct  4 20:44 /scratch/120770/460723.F05
-rw-rw-r--. 1 chemcomp chemcomp 65536000 Oct  4 20:52 /scratch/120770/460723.F10
-rw-rw-r--. 1 chemcomp chemcomp  4614952 Oct  4 20:51 /scratch/120770/460723.F22
Tue Oct  4 20:52:07 UTC 2022
0.106u 0.038s 7:47.08 0.0%	0+0k 8+208io 0pf+0w
Finishing Up...
Looking for IR data...
Looking for Raman data...
vibramans not found
Looking for thermodynamics data...
Looking for UV-Vis data...
chemcompute.org
{'UTCtimestamp': '2022-10-04T20:52:09.820884', 'cluster': 'jetstream2', 'clusterJobNumber': '120770', 'status': 'COMPLETE', 'nodeList': 'chemcompute-node-0'}
120770
